   This run of MOLCAS is using the pymolcas driver

                             OPE
                             OPE          NMOL  CASOP  ENMOLC A   SO
                 OPE        NMOLC        AS  OP EN  MO LC     AS  OP
                OPENM       OL CA        SO  PE NM  OL CA     SOP EN
                OP EN      MO   LC       AS  OP ENMOL  CASO   PENMOL
                OP  EN     MO   LC       AS  OP EN     MO     LC ASO
               OP   E  NMOL  C  AS       OP  EN MO     LC     AS  OP
               OP  E   NMO   LC AS        OPEN  MO     LCASOP EN   M
               O  PEN   MO  LCA  SO
            OPE   NMO   L   CAS    OP
        OPENMOL  CASOP     ENMOL   CASOPE
     OPENMOLCA   SOPENMOLCASOPEN   MOLCASOPE
    OPENMOLCAS   OP           EN   MOL    CAS
    OPENMOLCAS       OP  ENM        O     LCA
    OPENMOLCAS    OPEN  MOLCASO     P  E  NMO
    OPENMOLCAS     OP               E  N  MOL
    OPENMOLCA   SO           PENM   O  L  CAS    OPEN    MO    LCAS
    OPENMOLCA   SOP           ENM   O  L  CAS   OP  EN  MOLC  AS   O
    OPENMOLCA   SOPE           NM      O  LCA   S      OP  EN MO
    OPENMOLC                AS         O  PEN   M      OL  CA  SOPE
    OPENMO        LCASOPE  NMOL        C  ASO   P      ENMOLC     AS
    OPE     NMO      LCA  SO     P     E   NM   OL  CA SO  PE N   MO
          OPENMOLCA            SOPE   NMO        LCAS  O    P  ENMO
     OPENMOLCASOPENMOLCASOPENMOLCASOPENMOLCA
        OPENMOLCASOPENMOLCASOPENMOLCASOPE
            OPENMOLCASOPENMOLCASOPENM
               OPENMOLCASOPENMOLCA        version: v25.06 ?
                   OPENMOLCASO
                       OPE                tag:

 OpenMolcas is free software; you can redistribute it and/or modify it
 under the terms of the GNU Lesser General Public License version 2.1.
 OpenMolcas is distributed in the hope that it will be useful, but it
 is provided "as is" and without any express or implied warranties.
 For more details see the full text of the license in the file
 LICENSE or in <http://www.gnu.org/licenses/>.

                 Copyright (C) The OpenMolcas Authors
           For the author list and the recommended citation,
                   consult the file CONTRIBUTORS.md

           *************************************************
           * pymolcas version py2.29                       *
           *   build 637753c454b0e8fef9459a9b878b37a5      *
           *   (after the EMIL interpreter by V. Veryazov) *
           *************************************************

configuration info
------------------
Host name: node5385.dodrio.os (Linux)
C Compiler ID: IntelLLVM
C flags: -O2 -march=core-avx2 -fp-model precise -std=gnu99 -qopenmp
Fortran Compiler ID: Intel
Fortran flags: -O2 -march=core-avx2 -fp-model precise  -fpp -i8 -heap-arrays -qopenmp
Definitions: _MOLCAS_;_I8_;_LINUX_
Parallel: OFF (GA=OFF)


   ------------------------------------------------------------------------------------------------------------------
  |
  |           Project: mscaspt2
  |    Submitted from: /dodrio/scratch/projects/starting_2025_097/speedup_mscaspt2/full_mscaspt2
  |      Scratch area: /dodrio/scratch/projects/starting_2025_097/molcas_workdirs/12857367/mscaspt2.2555689
  |   Save outputs to: /dodrio/scratch/projects/starting_2025_097/speedup_mscaspt2/full_mscaspt2/mscaspt2
  |            Molcas: /readonly/dodrio/apps/RHEL9/zen3-ib/software/OpenMolcas/25.06-iomkl-2023a-DMRG-no-MPI
  |
  | Scratch area is empty
  |
  |    MOLCAS_DRIVER = /readonly/dodrio/apps/RHEL9/zen3-ib/software/OpenMolcas/25.06-iomkl-2023a-DMRG-no-MPI/pymolcas
  |    MOLCAS_MOLDEN = ON
  |    MOLCAS_NPROCS = 1
  |     MOLCAS_PRINT = verbose
  |    MOLCAS_SOURCE = /readonly/dodrio/apps/RHEL9/zen3-ib/software/OpenMolcas/25.06-iomkl-2023a-DMRG-no-MPI
  | MOLCAS_STRUCTURE = 0
  |
   ------------------------------------------------------------------------------------------------------------------

++ ---------   Input file   ---------

&GATEWAY
Title
Sorbaledehyde: 3-roots MS-CASPT2/SA-CASSCF
COORD = sorbaldehyde.xyz
GROUP = nosymm
BASIS = ANO-S-VDZP
RICD

&SEWARD
DoAnalytical

&RASSCF
File = sorbaldehyde-04.RasOrb
CIONLY
SPIN=1
CIROOT = 3 3 1
Inactive = 22
RAS2 = 7
NACTEL = 8
ORBAppear = COMPACT

&CASPT2
Multistate = all
Imaginary = 0.1

>>> COPY $Project.JobMix JOB001

&RASSI
NR OF JOBIPHS = 1 all
Ejob
TRDI

-- ----------------------------------

--- Start Module: gateway at Mon Nov  3 15:40:07 2025 ---
 
()()()()()()()()()()()()()()()()()()()()()()()()()()()()()()()()()()()()()()()()()()()()()()()()()()

                                              &GATEWAY

                                   only a single process is used
                       available to each process: 4.0 GB of memory, 1 thread
                                            pid: 2555866
()()()()()()()()()()()()()()()()()()()()()()()()()()()()()()()()()()()()()()()()()()()()()()()()()()
 
 
 
 Basis Set     1 Label: C.ANO-S-VDZP
 Basis set is read from library:basis_library 
 Basis Set Reference(s):
     K. Pierloot, B. Dumez, P.-O. Widmark, B.O. Roos. Theor. Chim. Acta 90 (1995) 87-114. doi:10.1007/bf01113842
     CARBON (10s,6p,3d) -> [7s,6p,3d]
 
 
 
 
 Basis Set     2 Label: O.ANO-S-VDZP
 Basis set is read from library:basis_library 
 Basis Set Reference(s):
     K. Pierloot, B. Dumez, P.-O. Widmark, B.O. Roos. Theor. Chim. Acta 90 (1995) 87-114. doi:10.1007/bf01113842
     OXYGEN (10s,6p,3d) -> [7s,6p,3d]
 
 
 
 
 Basis Set     3 Label: H.ANO-S-VDZP
 Basis set is read from library:basis_library 
 Basis Set Reference(s):
     K. Pierloot, B. Dumez, P.-O. Widmark, B.O. Roos. Theor. Chim. Acta 90 (1995) 87-114. doi:10.1007/bf01113842
     HYDROGEN (7s,3p) -> [6s,3p]
 
 
 
 
 Basis Set     4 Label: C.ANO-S-VDZP
 Basis set is read from library:basis_library 
 Basis Set Reference(s):
     K. Pierloot, B. Dumez, P.-O. Widmark, B.O. Roos. Theor. Chim. Acta 90 (1995) 87-114. doi:10.1007/bf01113842
     CARBON (10s,6p,3d) -> [7s,6p,3d]
 
 
 
 
 Basis Set     5 Label: H.ANO-S-VDZP
 Basis set is read from library:basis_library 
 Basis Set Reference(s):
     K. Pierloot, B. Dumez, P.-O. Widmark, B.O. Roos. Theor. Chim. Acta 90 (1995) 87-114. doi:10.1007/bf01113842
     HYDROGEN (7s,3p) -> [6s,3p]
 
 
 
 
 Basis Set     7 Label: C.ANO-S-VDZP....acCD-aux-basis.
 On-the-fly basis set generation
 
 
 Basis Set     8 Label: C.ANO-S-VDZP....acCD-aux-basis.
 On-the-fly basis set generation
 
 
 Basis Set     9 Label: O.ANO-S-VDZP....acCD-aux-basis.
 On-the-fly basis set generation
 
 
 Basis Set    10 Label: O.ANO-S-VDZP....acCD-aux-basis.
 On-the-fly basis set generation
 
 
 Basis Set    11 Label: H.ANO-S-VDZP....acCD-aux-basis.
 On-the-fly basis set generation
 
 
 Basis Set    12 Label: C.ANO-S-VDZP....acCD-aux-basis.
 On-the-fly basis set generation
 
 
 Basis Set    13 Label: C.ANO-S-VDZP....acCD-aux-basis.
 On-the-fly basis set generation
 
 
 Basis Set    14 Label: H.ANO-S-VDZP....acCD-aux-basis.
 On-the-fly basis set generation
 
               ****************************************************************************************
               *                                                                                      *
               *                      Sorbaledehyde: 3-roots MS-CASPT2/SA-CASSCF                      *
               *                                                                                      *
               ****************************************************************************************
 
  Weights used for alignment and distance                     
  mat. size =    15x    1
       12.0000000000000000
       12.0000000000000000
       12.0000000000000000
       12.0000000000000000
       12.0000000000000000
       15.9949146195700003
        1.0078250322300000
       12.0000000000000000
        1.0078250322300000
        1.0078250322300000
        1.0078250322300000
        1.0078250322300000
        1.0078250322300000
        1.0078250322300000
        1.0078250322300000
 
 
++    Symmetry information:
      ---------------------
 
                    Character Table for C1 
 
                             E  
                    a        1  x, y, xy, Rz, z, xz, Ry, yz, Rx, I
--
 
 
++    Basis set information:
      ----------------------
 
 
      Basis set label: C.ANO-S...3S2P1D.
 
      Electronic valence basis set:
      ------------------
      Associated Effective Charge   6.000000 au
      Associated Actual Charge      6.000000 au
      Nuclear Model: Point charge
 
      Shell  nPrim  nBasis  Cartesian Spherical Contaminant
         s      10       3        X                  
         p       6       2        X                  
         d       3       1                 X         
 
       Label   Cartesian Coordinates / bohr
 
 C1                -1.8128123829       -2.1101418915        1.2182969847
 C2                -1.0597168374       -0.0337523983        0.0195737832
 C3                 1.6038370192        0.6017058060       -0.3473656770
 C4                 2.4396099724        2.6605227360       -1.5360733301
 C5                 5.1711146011        3.1297417330       -1.8062040106
 
 
      Basis set label: O.ANO-S...3S2P1D.
 
      Electronic valence basis set:
      ------------------
      Associated Effective Charge   8.000000 au
      Associated Actual Charge      8.000000 au
      Nuclear Model: Point charge
 
      Shell  nPrim  nBasis  Cartesian Spherical Contaminant
         s      10       3        X                  
         p       6       2        X                  
         d       3       1                 X         
 
       Label   Cartesian Coordinates / bohr
 
 O6                 6.0591781659        4.9190912763       -2.8405134803
 
 
      Basis set label: H.ANO-S...2S1P.
 
      Electronic valence basis set:
      ------------------
      Associated Effective Charge   1.000000 au
      Associated Actual Charge      1.000000 au
      Nuclear Model: Point charge
 
      Shell  nPrim  nBasis  Cartesian Spherical Contaminant
         s       7       2        X                  
         p       3       1        X                  
 
       Label   Cartesian Coordinates / bohr
 
 H7                -0.3877321168       -3.3882260314        1.9561556684
 
 
      Basis set label: C.ANO-S...3S2P1D.
 
      Electronic valence basis set:
      ------------------
      Associated Effective Charge   6.000000 au
      Associated Actual Charge      6.000000 au
      Nuclear Model: Point charge
 
      Shell  nPrim  nBasis  Cartesian Spherical Contaminant
         s      10       3        X                  
         p       6       2        X                  
         d       3       1                 X         
 
       Label   Cartesian Coordinates / bohr
 
 C8                -4.5144782360       -2.8559279763        1.6488351777
 
 
      Basis set label: H.ANO-S...2S1P.
 
      Electronic valence basis set:
      ------------------
      Associated Effective Charge   1.000000 au
      Associated Actual Charge      1.000000 au
      Nuclear Model: Point charge
 
      Shell  nPrim  nBasis  Cartesian Spherical Contaminant
         s       7       2        X                  
         p       3       1        X                  
 
       Label   Cartesian Coordinates / bohr
 
 H9                 2.9719363734       -0.7202653334        0.4158002189
 H10                1.1719646796        4.0501290632       -2.3384151383
 H11                6.4045123873        1.6711074899       -0.9649697489
 H12               -2.4417604807        1.2739154041       -0.7354095986
 H13               -5.8093658206       -1.4731813549        0.8505392731
 H14               -4.8981474416       -3.0319427368        3.6682626563
 H15               -4.8981398827       -4.6927776755        0.7914872214
--
 
 
++    Molecular structure info:
      -------------------------
 
                    ************************************************ 
                    **** Cartesian Coordinates / bohr, angstrom **** 
                    ************************************************ 
 
     Center  Label                x              y              z                     x              y              z
        1      C1              -1.812812      -2.110142       1.218297             -0.959299      -1.116639       0.644695
        2      C2              -1.059717      -0.033752       0.019574             -0.560778      -0.017861       0.010358
        3      C3               1.603837       0.601706      -0.347366              0.848714       0.318409      -0.183818
        4      C4               2.439610       2.660523      -1.536073              1.290986       1.407888      -0.812855
        5      C5               5.171115       3.129742      -1.806204              2.736436       1.656188      -0.955802
        6      O6               6.059178       4.919091      -2.840513              3.206379       2.603071      -1.503135
        7      H7              -0.387732      -3.388226       1.956156             -0.205179      -1.792972       1.035153
        8      C8              -4.514478      -2.855928       1.648835             -2.388959      -1.511292       0.872526
        9      H9               2.971936      -0.720265       0.415800              1.572681      -0.381148       0.220032
       10      H10              1.171965       4.050129      -2.338415              0.620177       2.143236      -1.237436
       11      H11              6.404512       1.671107      -0.964970              3.389122       0.884312      -0.510640
       12      H12             -2.441760       1.273915      -0.735410             -1.292124       0.674127      -0.389162
       13      H13             -5.809366      -1.473181       0.850539             -3.074184      -0.779574       0.450086
       14      H14             -4.898147      -3.031943       3.668263             -2.591988      -1.604435       1.941161
       15      H15             -4.898140      -4.692778       0.791487             -2.591984      -2.483311       0.418837
 
                    *************************************** 
                    *    InterNuclear Distances / bohr    * 
                    *************************************** 
 
               1 C1            2 C2            3 C3            4 C4            5 C5            6 O6    
    1 C1       0.000000
    2 C2       2.513063        0.000000
    3 C3       4.634535        2.762783        0.000000
    4 C4       6.959087        4.682355        2.519974        0.000000
    5 C5       9.240088        7.222494        4.609191        2.784646        0.000000
    6 O6      11.307179        9.131781        6.686230        4.461387        2.249494        0.000000
    7 H7       2.051533        3.931209        5.019175        7.535044        9.356283       11.557777
    8 C8       2.835588        4.749162        7.305740        9.430494       11.898582       13.871099
    9 H9       5.046739        4.108835        2.049811        3.939912        4.959460        7.206732
   10 H10      7.714145        5.217145        4.005298        2.044916        4.138063        4.989194
   11 H11      9.305317        7.719494        4.956969        4.126203        2.087237        3.766473
   12 H12      3.957826        2.046959        4.119381        5.137268        7.908638        9.486028
   13 H13      4.063669        5.032060        7.790745        9.530427       12.199022       13.976672
   14 H14      4.046151        6.085690        8.461943       10.645748       13.012539       15.021521
   15 H15      4.046161        6.085709        8.461929       10.645710       13.012674       15.021394
 
               7 H7            8 C8            9 H9           10 H10          11 H11          12 H12   
    7 H7       0.000000
    8 C8       4.172268        0.000000
    9 H9       4.558298        7.882121        0.000000
   10 H10      8.729554        9.794255        5.795021        0.000000
   11 H11      8.959041       12.105800        4.405425        5.909793        0.000000
   12 H12      5.761868        5.199653        5.883040        4.830735        8.858160        0.000000
   13 H13      5.855245        2.055723        8.824236        9.455970       12.742113        4.626288
   14 H14      4.837571        2.063073        8.823864       11.094241       13.089524        6.630730
   15 H15      4.837570        2.063070        8.823837       11.094182       13.089466        6.630734
 
              13 H13          14 H14          15 H15   
   13 H13      0.000000
   14 H14      3.346583        0.000000
   15 H15      3.346583        3.321778        0.000000
 
                    ******************************************* 
                    *    InterNuclear Distances / angstrom    * 
                    ******************************************* 
 
               1 C1            2 C2            3 C3            4 C4            5 C5            6 O6    
    1 C1       0.000000
    2 C2       1.329855        0.000000
    3 C3       2.452490        1.462002        0.000000
    4 C4       3.682590        2.477795        1.333513        0.000000
    5 C5       4.889644        3.821979        2.439079        1.473571        0.000000
    6 O6       5.983501        4.832330        3.538200        2.360864        1.190381        0.000000
    7 H7       1.085625        2.080306        2.656033        3.987374        4.951132        6.116112
    8 C8       1.500528        2.513149        3.866031        4.990402        6.296458        7.340269
    9 H9       2.670619        2.174302        1.084713        2.084912        2.624433        3.813638
   10 H10      4.082150        2.760794        2.119513        1.082123        2.189768        2.640168
   11 H11      4.924162        4.084980        2.623115        2.183493        1.104518        1.993132
   12 H12      2.094391        1.083204        2.179883        2.718525        4.185071        5.019790
   13 H13      2.150401        2.662851        4.122685        5.043285        6.455444        7.396136
   14 H14      2.141131        3.220409        4.477867        5.633487        6.885939        7.949047
   15 H15      2.141136        3.220419        4.477860        5.633467        6.886011        7.948979
 
               7 H7            8 C8            9 H9           10 H10          11 H11          12 H12   
    7 H7       0.000000
    8 C8       2.207869        0.000000
    9 H9       2.412147        4.171039        0.000000
   10 H10      4.619481        5.182896        3.066593        0.000000
   11 H11      4.740920        6.406113        2.331250        3.127328        0.000000
   12 H12      3.049049        2.751538        3.113170        2.556315        4.687537        0.000000
   13 H13      3.098462        1.087842        4.669585        5.003884        6.742836        2.448126
   14 H14      2.559932        1.091731        4.669388        5.870819        6.926678        3.508831
   15 H15      2.559932        1.091730        4.669373        5.870788        6.926647        3.508834
 
              13 H13          14 H14          15 H15   
   13 H13      0.000000
   14 H14      1.770936        0.000000
   15 H15      1.770936        1.757809        0.000000
 
                    ************************************** 
                    *    Valence Bond Angles / degree    * 
                    ************************************** 
                          Atom centers                 Phi
                      2 C2       1 C1       7 H7       118.56
                      2 C2       1 C1       8 C8       125.12
                      7 H7       1 C1       8 C8       116.32
                      1 C1       2 C2       3 C3       122.84
                      1 C1       2 C2      12 H12      120.09
                      3 C3       2 C2      12 H12      117.06
                      2 C2       3 C3       4 C4       124.77
                      2 C2       3 C3       9 H9       116.47
                      4 C4       3 C3       9 H9       118.76
                      3 C3       4 C4       5 C5       120.58
                      3 C3       4 C4      10 H10      122.32
                      5 C5       4 C4      10 H10      117.10
                      4 C4       5 C5       6 O6       124.46
                      4 C4       5 C5      11 H11      115.01
                      6 O6       5 C5      11 H11      120.52
                      1 C1       8 C8      13 H13      111.36
                      1 C1       8 C8      14 H14      110.38
                      1 C1       8 C8      15 H15      110.38
                     13 H13      8 C8      14 H14      108.68
                     13 H13      8 C8      15 H15      108.68
                     14 H14      8 C8      15 H15      107.23
 
           ***************************************************************
           *              Valence Dihedral Angles / degree               *
           ***************************************************************
                    Atom centers                       Phi1     Phi2     Theta 
           7 H7       1 C1       2 C2      12 H12       118.56   120.09   180.00
           8 C8       1 C1       2 C2      12 H12       125.12   120.09    -0.00
           2 C2       1 C1       8 C8      13 H13       125.12   111.36     0.00
           2 C2       1 C1       8 C8      14 H14       125.12   110.38  -120.82
           2 C2       1 C1       8 C8      15 H15       125.12   110.38   120.82
           7 H7       1 C1       8 C8      13 H13       116.32   111.36  -180.00
           7 H7       1 C1       8 C8      14 H14       116.32   110.38    59.18
           7 H7       1 C1       8 C8      15 H15       116.32   110.38   -59.18
           3 C3       2 C2       1 C1       7 H7        122.84   118.56     0.00
           3 C3       2 C2       1 C1       8 C8        122.84   125.12  -180.00
           1 C1       2 C2       3 C3       4 C4        122.84   124.77   180.00
           1 C1       2 C2       3 C3       9 H9        122.84   116.47    -0.00
           4 C4       3 C3       2 C2      12 H12       124.77   117.06     0.00
           9 H9       3 C3       2 C2      12 H12       116.47   117.06  -180.00
           2 C2       3 C3       4 C4       5 C5        124.77   120.58   179.98
           2 C2       3 C3       4 C4      10 H10       124.77   122.32    -0.00
           9 H9       3 C3       4 C4      10 H10       118.76   122.32   180.00
           5 C5       4 C4       3 C3       9 H9        120.58   118.76    -0.02
           3 C3       4 C4       5 C5       6 O6        120.58   124.46   179.97
           3 C3       4 C4       5 C5      11 H11       120.58   115.01     0.04
          10 H10      4 C4       5 C5      11 H11       117.10   115.01  -179.98
           6 O6       5 C5       4 C4      10 H10       124.46   117.10    -0.05
--
 
 
++    Isotope specification:
      ----------------------
 
 Center
 Type   Z    A    mass (Da)
 --------------------------
    1   6   12    12.000000
    2   8   16    15.994915
    3   1    1     1.007825
    4   6   12    12.000000
    5   1    1     1.007825
--
 
 
++    Rigid rotor info:
      -----------------
 
 
                    Total mass (a) :  96.05751
 
                    Center of mass 
                          X          Y   
                       1.15450    0.92679   -0.53507
 
                    Reference system based on center of mass
                    Coordinates and Masses of Atoms, in au and A
                          X          Y          Z        Mass
                      -2.96731   -3.03694    1.75336   12.00000
                      -2.21422   -0.96055    0.55464   12.00000
                       0.44934   -0.32509    0.18770   12.00000
                       1.28511    1.73373   -1.00101   12.00000
                       4.01662    2.20295   -1.27114   12.00000
                       4.90468    3.99230   -2.30545   15.99491
                      -1.54223   -4.31502    2.49122    1.00783
                      -5.66898   -3.78272    2.18390   12.00000
                       1.81744   -1.64706    0.95087    1.00783
                       0.01747    3.12333   -1.80335    1.00783
                       5.25001    0.74431   -0.42990    1.00783
                      -3.59626    0.34712   -0.20034    1.00783
                      -6.96386   -2.39998    1.38560    1.00783
                      -6.05265   -3.95874    4.20333    1.00783
                      -6.05264   -5.61957    1.32655    1.00783
 
                    The Moment of Inertia Tensor / au
                                     X          Y        Z     
                    X             1.7796E+06
                    Y            -1.6717E+06 2.8562E+06
                    Z             9.6514E+05 7.6182E+05 3.7358E+06
 
 
  Pax                                                         
  mat. size =     3x    3
        1.0000000000000000      0.0000000000000000      0.0000000000000000
        0.0000000000000000      1.0000000000000000      0.0000000000000000
        0.0000000000000000      0.0000000000000000      1.0000000000000000
                    The Principal Axes and Moments of Inertia (au)
                    Eigenvalues : 4.1757E+06 4.0543E+06 1.4161E+05
                                     X'         Y'       Z'    
                    Eigenvectors:
                    X            -6.3707E-05-6.4702E-01 7.6248E-01
                    Y             5.0007E-01 6.6027E-01 5.6033E-01
                    Z             8.6599E-01-3.8133E-01-3.2351E-01
 
                    The Rotational Constants
                            (cm-1)            (GHz)
                              0.026            0.788
                              0.027            0.811
                              0.775           23.231
 
 
                    *******************************************
                    *                                         *
                    * R I G I D - R O T O R   A N A L Y S I S *
                    *                                         *
                    *******************************************
 
                    j(Max):  5
 
                    Rotor Type: Linear Rotor
                    Asymmetry parameter: -0.998
                    Prolate = -1
                    Oblate  =  1
 
 
                    Rotational energies / cm-1
 
                    E(J= 0,kappa= 0) =        0.000
 
                    E(J= 1,kappa=-1) =        0.053
                    E(J= 1,kappa= 0) =        0.801
                    E(J= 1,kappa= 1) =        0.802
 
                    E(J= 2,kappa=-2) =        0.160
                    E(J= 2,kappa=-1) =        0.907
                    E(J= 2,kappa= 0) =        0.909
                    E(J= 2,kappa= 1) =        3.153
                    E(J= 2,kappa= 2) =        3.153
 
                    E(J= 3,kappa=-3) =        0.320
                    E(J= 3,kappa=-2) =        1.066
                    E(J= 3,kappa=-1) =        1.071
                    E(J= 3,kappa= 0) =        3.313
                    E(J= 3,kappa= 1) =        3.313
                    E(J= 3,kappa= 2) =        7.054
                    E(J= 3,kappa= 3) =        7.054
 
                    E(J= 4,kappa=-4) =        0.533
                    E(J= 4,kappa=-3) =        1.278
                    E(J= 4,kappa=-2) =        1.286
                    E(J= 4,kappa=-1) =        3.526
                    E(J= 4,kappa= 0) =        3.526
                    E(J= 4,kappa= 1) =        7.268
                    E(J= 4,kappa= 2) =        7.268
                    E(J= 4,kappa= 3) =       12.505
                    E(J= 4,kappa= 4) =       12.505
 
                    E(J= 5,kappa=-5) =        0.800
                    E(J= 5,kappa=-4) =        1.543
                    E(J= 5,kappa=-3) =        1.554
                    E(J= 5,kappa=-2) =        3.793
                    E(J= 5,kappa=-1) =        3.793
                    E(J= 5,kappa= 0) =        7.534
                    E(J= 5,kappa= 1) =        7.534
                    E(J= 5,kappa= 2) =       12.772
                    E(J= 5,kappa= 3) =       12.772
                    E(J= 5,kappa= 4) =       19.506
                    E(J= 5,kappa= 5) =       19.506
--
 
 
++    Primitive basis info:
      ---------------------
 
 
                    *****************************************************
                    ******** Primitive Basis Functions (Valence) ********
                    *****************************************************
 
 
 Basis set:C.ANO-S...3S2P1D.                                                               
 
                  Type         
                   s
           No.      Exponent    Contraction Coefficients
            1  5.240635300E+03   0.000937  -0.000201   0.000189
            2  7.822047900E+02   0.007229  -0.001591   0.001599
            3  1.783508300E+02   0.036344  -0.007858   0.007159
            4  5.081594200E+01   0.130629  -0.030786   0.032551
            5  1.682356200E+01   0.318899  -0.077760   0.066712
            6  6.175776000E+00   0.439079  -0.165480   0.210715
            7  2.418049000E+00   0.214477  -0.093532   0.016063
            8  5.119000000E-01   0.009529   0.591068  -1.206081
            9  1.565900000E-01  -0.002422   0.510180   0.623592
           10  5.480600000E-02   0.000859   0.036021   0.675554
 
                  Type         
                   p
           No.      Exponent    Contraction Coefficients
           11  1.884180000E+01   0.013632  -0.012701
           12  4.159240000E+00   0.083811  -0.067266
           13  1.206710000E+00   0.285792  -0.340423
           14  3.855400000E-01   0.486416  -0.374777
           15  1.219400000E-01   0.314764   0.422841
           16  4.267900000E-02   0.090934   0.642839
 
                  Type         
                   d
           No.      Exponent    Contraction Coefficients
           17  1.283800000E+00   0.320879
           18  3.440000000E-01   0.723314
           19  9.220000000E-02   0.157214
 
 
 Basis set:O.ANO-S...3S2P1D.                                                               
 
                  Type         
                   s
           No.      Exponent    Contraction Coefficients
           96  1.066228500E+04   0.000799  -0.000181   0.000184
           97  1.599709700E+03   0.006153  -0.001432   0.001610
           98  3.647252600E+02   0.031154  -0.007092   0.006857
           99  1.036517900E+02   0.115620  -0.028730   0.034442
          100  3.390580500E+01   0.301484  -0.077198   0.068451
          101  1.228746900E+01   0.445165  -0.172269   0.254862
          102  4.756805000E+00   0.242700  -0.101762  -0.002275
          103  1.004271000E+00   0.014008   0.580192  -1.309317
          104  3.006860000E-01  -0.003647   0.525018   0.844218
          105  1.052400000E-01   0.001358   0.034536   0.502870
 
                  Type         
                   p
           No.      Exponent    Contraction Coefficients
          106  3.485646300E+01   0.015710  -0.014247
          107  7.843131000E+00   0.098633  -0.082427
          108  2.308269000E+00   0.311338  -0.350793
          109  7.231640000E-01   0.483935  -0.308637
          110  2.148820000E-01   0.304345   0.431588
          111  7.520900000E-02   0.074105   0.621269
 
                  Type         
                   d
           No.      Exponent    Contraction Coefficients
          112  2.695000000E+00   0.316910
          113  7.221000000E-01   0.721821
          114  1.935000000E-01   0.164894
 
 
 Basis set:H.ANO-S...2S1P.                                                                 
 
                  Type         
                   s
           No.      Exponent    Contraction Coefficients
          115  8.263637400E+01   0.002564  -0.004601
          116  1.240955800E+01   0.019213  -0.032445
          117  2.823854000E+00   0.095051  -0.171074
          118  7.976700000E-01   0.301868  -0.504867
          119  2.580530000E-01   0.487446  -0.094892
          120  8.989100000E-02   0.235479   0.370856
          121  3.146200000E-02   0.015778   0.655651
 
                  Type         
                   p
           No.      Exponent    Contraction Coefficients
          122  1.662500000E+00   0.301277
          123  4.156000000E-01   0.680057
          124  1.039000000E-01   0.198563
 
 
 Basis set:C.ANO-S...3S2P1D.                                                               
 
                  Type         
                   s
           No.      Exponent    Contraction Coefficients
          125  5.240635300E+03   0.000937  -0.000201   0.000189
          126  7.822047900E+02   0.007229  -0.001591   0.001599
          127  1.783508300E+02   0.036344  -0.007858   0.007159
          128  5.081594200E+01   0.130629  -0.030786   0.032551
          129  1.682356200E+01   0.318899  -0.077760   0.066712
          130  6.175776000E+00   0.439079  -0.165480   0.210715
          131  2.418049000E+00   0.214477  -0.093532   0.016063
          132  5.119000000E-01   0.009529   0.591068  -1.206081
          133  1.565900000E-01  -0.002422   0.510180   0.623592
          134  5.480600000E-02   0.000859   0.036021   0.675554
 
                  Type         
                   p
           No.      Exponent    Contraction Coefficients
          135  1.884180000E+01   0.013632  -0.012701
          136  4.159240000E+00   0.083811  -0.067266
          137  1.206710000E+00   0.285792  -0.340423
          138  3.855400000E-01   0.486416  -0.374777
          139  1.219400000E-01   0.314764   0.422841
          140  4.267900000E-02   0.090934   0.642839
 
                  Type         
                   d
           No.      Exponent    Contraction Coefficients
          141  1.283800000E+00   0.320879
          142  3.440000000E-01   0.723314
          143  9.220000000E-02   0.157214
 
 
 Basis set:H.ANO-S...2S1P.                                                                 
 
                  Type         
                   s
           No.      Exponent    Contraction Coefficients
          144  8.263637400E+01   0.002564  -0.004601
          145  1.240955800E+01   0.019213  -0.032445
          146  2.823854000E+00   0.095051  -0.171074
          147  7.976700000E-01   0.301868  -0.504867
          148  2.580530000E-01   0.487446  -0.094892
          149  8.989100000E-02   0.235479   0.370856
          150  3.146200000E-02   0.015778   0.655651
 
                  Type         
                   p
           No.      Exponent    Contraction Coefficients
          151  1.662500000E+00   0.301277
          152  4.156000000E-01   0.680057
          153  1.039000000E-01   0.198563
 
  Number of primitives                                   429
  Number of basis functions                              138
 
--
 
 
++    SO/AO info:
      -----------
 
                    **************************************************
                    ********** Petite list Basis Functions ***********
                    **************************************************
 
 
           Basis functions generated by E  
 
 Basis Label        Type   Center
    1  C1            1s       1
    2  C1            2s       1
    3  C1            3s       1
    4  C1            2px      1
    5  C1            3px      1
    6  C1            2py      1
    7  C1            3py      1
    8  C1            2pz      1
    9  C1            3pz      1
   10  C1            3d2-     1
   11  C1            3d1-     1
   12  C1            3d0      1
   13  C1            3d1+     1
   14  C1            3d2+     1
   15  C2            1s       2
   16  C2            2s       2
   17  C2            3s       2
   18  C2            2px      2
   19  C2            3px      2
   20  C2            2py      2
   21  C2            3py      2
   22  C2            2pz      2
   23  C2            3pz      2
   24  C2            3d2-     2
   25  C2            3d1-     2
   26  C2            3d0      2
   27  C2            3d1+     2
   28  C2            3d2+     2
   29  C3            1s       3
   30  C3            2s       3
   31  C3            3s       3
   32  C3            2px      3
   33  C3            3px      3
   34  C3            2py      3
   35  C3            3py      3
   36  C3            2pz      3
   37  C3            3pz      3
   38  C3            3d2-     3
   39  C3            3d1-     3
   40  C3            3d0      3
   41  C3            3d1+     3
   42  C3            3d2+     3
   43  C4            1s       4
   44  C4            2s       4
   45  C4            3s       4
   46  C4            2px      4
   47  C4            3px      4
   48  C4            2py      4
   49  C4            3py      4
   50  C4            2pz      4
   51  C4            3pz      4
   52  C4            3d2-     4
   53  C4            3d1-     4
   54  C4            3d0      4
   55  C4            3d1+     4
   56  C4            3d2+     4
   57  C5            1s       5
   58  C5            2s       5
   59  C5            3s       5
   60  C5            2px      5
   61  C5            3px      5
   62  C5            2py      5
   63  C5            3py      5
   64  C5            2pz      5
   65  C5            3pz      5
   66  C5            3d2-     5
   67  C5            3d1-     5
   68  C5            3d0      5
   69  C5            3d1+     5
   70  C5            3d2+     5
   71  O6            1s       6
   72  O6            2s       6
   73  O6            3s       6
   74  O6            2px      6
   75  O6            3px      6
   76  O6            2py      6
   77  O6            3py      6
   78  O6            2pz      6
   79  O6            3pz      6
   80  O6            3d2-     6
   81  O6            3d1-     6
   82  O6            3d0      6
   83  O6            3d1+     6
   84  O6            3d2+     6
   85  H7            1s       7
   86  H7            2s       7
   87  H7            2px      7
   88  H7            2py      7
   89  H7            2pz      7
   90  C8            1s       8
   91  C8            2s       8
   92  C8            3s       8
   93  C8            2px      8
   94  C8            3px      8
   95  C8            2py      8
   96  C8            3py      8
   97  C8            2pz      8
   98  C8            3pz      8
   99  C8            3d2-     8
  100  C8            3d1-     8
  101  C8            3d0      8
  102  C8            3d1+     8
  103  C8            3d2+     8
  104  H9            1s       9
  105  H9            2s       9
  106  H9            2px      9
  107  H9            2py      9
  108  H9            2pz      9
  109  H10           1s      10
  110  H10           2s      10
  111  H10           2px     10
  112  H10           2py     10
  113  H10           2pz     10
  114  H11           1s      11
  115  H11           2s      11
  116  H11           2px     11
  117  H11           2py     11
  118  H11           2pz     11
  119  H12           1s      12
  120  H12           2s      12
  121  H12           2px     12
  122  H12           2py     12
  123  H12           2pz     12
  124  H13           1s      13
  125  H13           2s      13
  126  H13           2px     13
  127  H13           2py     13
  128  H13           2pz     13
  129  H14           1s      14
  130  H14           2s      14
  131  H14           2px     14
  132  H14           2py     14
  133  H14           2pz     14
  134  H15           1s      15
  135  H15           2s      15
  136  H15           2px     15
  137  H15           2py     15
  138  H15           2pz     15
 
      Basis set specifications :
      Symmetry species        a  
      Basis functions         138
--
 
 
            Nuclear Potential Energy            252.87699523 au
 
--- Stop Module: gateway at Mon Nov  3 15:40:26 2025 /rc=_RC_ALL_IS_WELL_ ---
*** files: mscaspt2.RICDLib xmldump
    saved to directory /dodrio/scratch/projects/starting_2025_097/speedup_mscaspt2/full_mscaspt2/mscaspt2
--- Module gateway spent 19 seconds ---

--- Start Module: seward at Mon Nov  3 15:40:27 2025 ---
 
()()()()()()()()()()()()()()()()()()()()()()()()()()()()()()()()()()()()()()()()()()()()()()()()()()

                                              &SEWARD

                                   only a single process is used
                       available to each process: 4.0 GB of memory, 1 thread
                                            pid: 2555912
()()()()()()()()()()()()()()()()()()()()()()()()()()()()()()()()()()()()()()()()()()()()()()()()()()
 
 RdCtl: keyword DOAN is obsolete and is ignored!
 
  Weights used for alignment and distance                     
  mat. size =    15x    1
       12.0000000000000000
       12.0000000000000000
       12.0000000000000000
       12.0000000000000000
       12.0000000000000000
       15.9949146195700003
        1.0078250322300000
       12.0000000000000000
        1.0078250322300000
        1.0078250322300000
        1.0078250322300000
        1.0078250322300000
        1.0078250322300000
        1.0078250322300000
        1.0078250322300000
 
               SEWARD will generate:
                  Multipole Moment integrals up to order  2
                  Kinetic Energy integrals
                  Nuclear Attraction integrals (point charge)
                  One-Electron Hamiltonian integrals
                  Velocity integrals
                  Orbital angular momentum around (  1.1545   0.9268  -0.5351 )
                  Velocity quadrupole around (  1.1545   0.9268  -0.5351 )
                  RI decomposed two-electron repulsion integrals stored Cholesky style
                   - acCD auxiliary basis
                   - CD Threshold:   1.00E-04
 
               ****************************************************************************************
               *                                                                                      *
               *                      Sorbaledehyde: 3-roots MS-CASPT2/SA-CASSCF                      *
               *                                                                                      *
               ****************************************************************************************
 
                   Integrals are discarded if absolute value <: 1.00E-14
                   Integral cutoff threshold is set to       <: 1.00E-16
 
++    SO/AO info:
      -----------
 
                    **************************************************
                    ********** Petite list Basis Functions ***********
                    **************************************************
 
 
           Basis functions generated by E  
 
 Basis Label        Type   Center
    1  C1            1s       1
    2  C1            2s       1
    3  C1            3s       1
    4  C1            2px      1
    5  C1            3px      1
    6  C1            2py      1
    7  C1            3py      1
    8  C1            2pz      1
    9  C1            3pz      1
   10  C1            3d2-     1
   11  C1            3d1-     1
   12  C1            3d0      1
   13  C1            3d1+     1
   14  C1            3d2+     1
   15  C2            1s       2
   16  C2            2s       2
   17  C2            3s       2
   18  C2            2px      2
   19  C2            3px      2
   20  C2            2py      2
   21  C2            3py      2
   22  C2            2pz      2
   23  C2            3pz      2
   24  C2            3d2-     2
   25  C2            3d1-     2
   26  C2            3d0      2
   27  C2            3d1+     2
   28  C2            3d2+     2
   29  C3            1s       3
   30  C3            2s       3
   31  C3            3s       3
   32  C3            2px      3
   33  C3            3px      3
   34  C3            2py      3
   35  C3            3py      3
   36  C3            2pz      3
   37  C3            3pz      3
   38  C3            3d2-     3
   39  C3            3d1-     3
   40  C3            3d0      3
   41  C3            3d1+     3
   42  C3            3d2+     3
   43  C4            1s       4
   44  C4            2s       4
   45  C4            3s       4
   46  C4            2px      4
   47  C4            3px      4
   48  C4            2py      4
   49  C4            3py      4
   50  C4            2pz      4
   51  C4            3pz      4
   52  C4            3d2-     4
   53  C4            3d1-     4
   54  C4            3d0      4
   55  C4            3d1+     4
   56  C4            3d2+     4
   57  C5            1s       5
   58  C5            2s       5
   59  C5            3s       5
   60  C5            2px      5
   61  C5            3px      5
   62  C5            2py      5
   63  C5            3py      5
   64  C5            2pz      5
   65  C5            3pz      5
   66  C5            3d2-     5
   67  C5            3d1-     5
   68  C5            3d0      5
   69  C5            3d1+     5
   70  C5            3d2+     5
   71  O6            1s       6
   72  O6            2s       6
   73  O6            3s       6
   74  O6            2px      6
   75  O6            3px      6
   76  O6            2py      6
   77  O6            3py      6
   78  O6            2pz      6
   79  O6            3pz      6
   80  O6            3d2-     6
   81  O6            3d1-     6
   82  O6            3d0      6
   83  O6            3d1+     6
   84  O6            3d2+     6
   85  H7            1s       7
   86  H7            2s       7
   87  H7            2px      7
   88  H7            2py      7
   89  H7            2pz      7
   90  C8            1s       8
   91  C8            2s       8
   92  C8            3s       8
   93  C8            2px      8
   94  C8            3px      8
   95  C8            2py      8
   96  C8            3py      8
   97  C8            2pz      8
   98  C8            3pz      8
   99  C8            3d2-     8
  100  C8            3d1-     8
  101  C8            3d0      8
  102  C8            3d1+     8
  103  C8            3d2+     8
  104  H9            1s       9
  105  H9            2s       9
  106  H9            2px      9
  107  H9            2py      9
  108  H9            2pz      9
  109  H10           1s      10
  110  H10           2s      10
  111  H10           2px     10
  112  H10           2py     10
  113  H10           2pz     10
  114  H11           1s      11
  115  H11           2s      11
  116  H11           2px     11
  117  H11           2py     11
  118  H11           2pz     11
  119  H12           1s      12
  120  H12           2s      12
  121  H12           2px     12
  122  H12           2py     12
  123  H12           2pz     12
  124  H13           1s      13
  125  H13           2s      13
  126  H13           2px     13
  127  H13           2py     13
  128  H13           2pz     13
  129  H14           1s      14
  130  H14           2s      14
  131  H14           2px     14
  132  H14           2py     14
  133  H14           2pz     14
  134  H15           1s      15
  135  H15           2s      15
  136  H15           2px     15
  137  H15           2py     15
  138  H15           2pz     15
 
      Basis set specifications :
      Symmetry species        a  
      Basis functions         138
--
 
 
            Nuclear Potential Energy            252.87699523 au
 
 
      Basis set specifications :
      Symmetry species         a  
      Basis functions          138
 
 
Seward processing 2-center and 3-center ERIs
 
 2-center integrals:
      CPU time :    0.11 sec.
      Wall time:    0.15 sec.
 3-center integrals:
      CPU time :    2.24 sec.
      Wall time:    2.31 sec.
 Block-transpose:
      CPU time :    0.04 sec.
      Wall time:    1.46 sec.
 Diagonal vector:
      CPU time :    0.07 sec.
      Wall time:    0.08 sec.
      RI vectors               666
 
 
 
      Input file to MOLDEN was generated!
 
++ I/O STATISTICS
 
  I. General I/O information
  - - - - - - - - - - - - - - - - - - - - - - - - - - - - - - - - - - - - - - - - - - -
  Unit  Name          Flsize      Write/Read            MBytes           Write/Read
                      (MBytes)       Calls              In/Out           Time, sec.
  - - - - - - - - - - - - - - - - - - - - - - - - - - - - - - - - - - - - - - - - - - -
   1  RUNFILE           0.57 .    1372/    8294 .     10.0/     60.7 .       0/       0
   2  NQGRID            0.00 .       4/       0 .      0.0/      0.0 .       0/       0
   3  ONEINT            3.48 .      62/     106 .     46.7/     22.3 .       0/       0
   4  AVEC00            0.00 .     667/    1333 .      5.1/     10.2 .       0/       0
   5  ZMAT00            0.00 .       1/       0 .      3.4/      0.0 .       0/       0
   6  AMAT00            1.69 .       2/       1 .      3.4/      1.7 .       0/       0
   7  QMAT00            0.00 .       1/       1 .      1.7/      1.7 .       0/       0
   8  QVEC00            3.38 .     666/       1 .      3.4/      3.4 .       0/       0
   9  RVEC00           48.73 .     703/     703 .     48.7/     48.7 .       0/       0
  10  CHRED             0.16 .       4/       0 .      0.2/      0.0 .       0/       0
  11  CHVEC1           48.73 .       1/       0 .     48.7/      0.0 .       0/       0
  12  CHORST            0.03 .      12/       0 .      0.0/      0.0 .       0/       0
  13  CHOMAP            0.01 .       1/       0 .      0.0/      0.0 .       0/       0
  14  CHODIAG           0.07 .       1/       0 .      0.1/      0.0 .       0/       0
  - - - - - - - - - - - - - - - - - - - - - - - - - - - - - - - - - - - - - - - - - - -
   *  TOTAL           106.85 .    3497/   10439 .    171.4/    148.6 .       0/       0
  - - - - - - - - - - - - - - - - - - - - - - - - - - - - - - - - - - - - - - - - - - -
 
  II. I/O Access Patterns
  - - - - - - - - - - - - - - - - - - - -
  Unit  Name               % of random
                         Write/Read calls
  - - - - - - - - - - - - - - - - - - - -
   1  RUNFILE             28.6/  10.1
   2  NQGRID              25.0/   0.0
   3  ONEINT              95.2/  14.2
   4  AVEC00              99.9/  99.5
   5  ZMAT00               0.0/   0.0
   6  AMAT00              50.0/ 100.0
   7  QMAT00               0.0/ 100.0
   8  QVEC00               0.0/ 100.0
   9  RVEC00               0.0/   0.1
  10  CHRED                0.0/   0.0
  11  CHVEC1               0.0/   0.0
  12  CHORST               0.0/   0.0
  13  CHOMAP               0.0/   0.0
  14  CHODIAG              0.0/   0.0
  - - - - - - - - - - - - - - - - - - - -
--
--- Stop Module: seward at Mon Nov  3 15:40:39 2025 /rc=_RC_ALL_IS_WELL_ ---
*** files: mscaspt2.GssOrb mscaspt2.guessorb.h5 mscaspt2.guessorb.molden xmldump
    saved to directory /dodrio/scratch/projects/starting_2025_097/speedup_mscaspt2/full_mscaspt2/mscaspt2
--- Module seward spent 12 seconds ---

*** symbolic link created: INPORB -> mscaspt2.GssOrb
--- Start Module: rasscf at Mon Nov  3 15:40:39 2025 ---
 
()()()()()()()()()()()()()()()()()()()()()()()()()()()()()()()()()()()()()()()()()()()()()()()()()()

                                              &RASSCF

                                   only a single process is used
                       available to each process: 4.0 GB of memory, 1 thread
                                            pid: 2555923
()()()()()()()()()()()()()()()()()()()()()()()()()()()()()()()()()()()()()()()()()()()()()()()()()()
 
  Orbital specification was read from input.
 
      Header of the ONEINT file:
      --------------------------
      
      Integrals generated by Gateway/Seward, Mon Nov  3 15:40:28 2025
 
 
      OrdInt status: non-squared
 
 
      Cartesian coordinates in angstrom:
      -----------------------------------------------------
      No.  Label        X            Y            Z        
      -----------------------------------------------------
       1   C1        -0.95929900  -1.11663900   0.64469500
       2   C2        -0.56077800  -0.01786100   0.01035800
       3   C3         0.84871400   0.31840900  -0.18381800
       4   C4         1.29098600   1.40788800  -0.81285500
       5   C5         2.73643600   1.65618800  -0.95580200
       6   O6         3.20637900   2.60307100  -1.50313500
       7   H7        -0.20517900  -1.79297200   1.03515300
       8   C8        -2.38895900  -1.51129200   0.87252600
       9   H9         1.57268100  -0.38114800   0.22003200
      10   H10        0.62017700   2.14323600  -1.23743600
      11   H11        3.38912200   0.88431200  -0.51064000
      12   H12       -1.29212400   0.67412700  -0.38916200
      13   H13       -3.07418400  -0.77957400   0.45008600
      14   H14       -2.59198800  -1.60443500   1.94116100
      15   H15       -2.59198400  -2.48331100   0.41883700
      -----------------------------------------------------
      Nuclear repulsion energy =  252.87699523
 
++    Wave function specifications:
      -----------------------------
 
      Number of closed shell electrons          44
      Number of electrons in active shells       8
      Max number of holes in RAS1 space          0
      Max nr of electrons in RAS3 space          0
      Number of inactive orbitals               22
      Number of active orbitals                  7
      Number of secondary orbitals             109
      Spin quantum number                      0.0
      State symmetry                             1
--
 
++    Orbital specifications:
      -----------------------
 
      Symmetry species                           1
                                                 a
      Frozen orbitals                            0
      Inactive orbitals                         22
      Active orbitals                            7
      RAS1 orbitals                              0
      RAS2 orbitals                              7
      RAS3 orbitals                              0
      Secondary orbitals                       109
      Deleted orbitals                           0
      Number of basis functions                138
--
 
++    CI expansion specifications:
      ----------------------------
 
      Number of CSFs                           490
      Number of determinants                   630
      Number of root(s) required                 3
      Root chosen for geometry opt.              3
      CI roots used                              1     2     3
      weights                                0.333 0.333 0.333
      highest root included in the CI            3
      max. size of the explicit Hamiltonian    200
--
 
++    Optimization specifications:
      ----------------------------
 
      RASSCF algorithm: LK RI/DF
      Maximum number of macro iterations       200
      Maximum number of SX iterations          100
      Threshold for RASSCF energy            1.000E-08
      Threshold for max MO rotation          1.000E-01
      Threshold for max BLB element          1.000E-04
      Level shift parameter                  5.000E-01
      Make Quasi-Newton update
--
 
      The MO-coefficients are taken from the file:
      /dodrio/scratch/projects/starting_2025_097/speedup_mscaspt2/full_mscaspt2/sorbaldehyde-04.RasOrb
      Title: RASSCF average (pseudo-natural) orbitals                                      
 
      Total molecular charge    0.00
 
      ************************************************************************************************************************
      *                                                                                                                      *
      *                                            Wave function control section                                             *
      *                                                                                                                      *
      ************************************************************************************************************************
 
 
                                         CASCI only, no orbital optimization will be done.
                                         -------------------------------------------------
 
      Iter CI   SX   CI       RASSCF       Energy    max ROT     max BLB   max BLB  Level Ln srch  Step   QN   Walltime
          iter iter root      energy       change     param      element    value   shift minimum  type update hh:mm:ss
 Nr of preliminary CI iterations:  11
        1   1    0    0  -306.69696043    0.00E+00   0.00E+00   22  53 1 -4.28E-06   0.00   0.00    SX    NO    0:00:06
 
      ************************************************************************************************************************
                                                      Wave function printout:
                       occupation of active orbitals, and spin coupling of open shells (u,d: Spin up or down)
      ************************************************************************************************************************
 
      Note: transformation to natural orbitals
      has been made, which may change the order of the CSFs.
 
      printout of CI-coefficients larger than  0.05 for root  1
      energy=    -306.828676
      conf/sym  1111111     Coeff  Weight
             1  2222000   0.91269 0.83301
             2  222ud00   0.12795 0.01637
             3  2220200  -0.12741 0.01623
             4  222u0d0  -0.12578 0.01582
             5  2220ud0  -0.09032 0.00816
             6  2220020  -0.07607 0.00579
            32  2u2d200  -0.06319 0.00399
            33  2u220d0  -0.07767 0.00603
            34  2u2dud0   0.09637 0.00929
            35  2u2udd0  -0.05374 0.00289
            37  2u2d020   0.08282 0.00686
            40  2u2du0d   0.07953 0.00633
            60  u22du0d  -0.08790 0.00773
           131  2022200  -0.06865 0.00471
           134  2022020  -0.05700 0.00325
           157  ud22u0d  -0.07935 0.00630
           171  0222200  -0.07609 0.00579
           172  0222ud0   0.06409 0.00411
 
      printout of CI-coefficients larger than  0.05 for root  2
      energy=    -306.676316
      conf/sym  1111111     Coeff  Weight
            11  22u2d00   0.83716 0.70084
            12  22ud200  -0.24770 0.06136
            13  22u20d0  -0.25291 0.06396
            15  22uudd0  -0.06071 0.00369
            16  22u02d0   0.08753 0.00766
            18  22u0d20   0.08205 0.00673
            19  22u200d   0.15028 0.02258
            21  22uud0d   0.08833 0.00780
            23  22ud0ud  -0.05350 0.00286
            91  2ud2200  -0.16142 0.02606
            92  2ud2ud0   0.10322 0.01065
            93  2udu2d0  -0.06511 0.00424
           111  u2d2200  -0.05105 0.00261
           112  u2d2ud0   0.07382 0.00545
           117  u2d2u0d  -0.10062 0.01013
           119  u2d20ud   0.05733 0.00329
           191  2uu2dd0  -0.05132 0.00263
           193  2uudd20   0.06848 0.00469
           194  2uu2d0d  -0.05036 0.00254
           195  2uud20d   0.05718 0.00327
           277  20u2d20  -0.06263 0.00392
 
      printout of CI-coefficients larger than  0.05 for root  3
      energy=    -306.585890
      conf/sym  1111111     Coeff  Weight
             2  222ud00  -0.21273 0.04526
             3  2220200  -0.49133 0.24140
             4  222u0d0   0.34955 0.12219
             5  2220ud0  -0.25433 0.06468
             7  222u00d   0.16662 0.02776
             9  22200ud   0.13703 0.01878
            10  2220002   0.08506 0.00723
            31  2u22d00   0.44660 0.19945
            33  2u220d0   0.21177 0.04485
            35  2u2udd0  -0.13547 0.01835
            37  2u2d020  -0.05933 0.00352
            39  2u2200d  -0.08227 0.00677
            40  2u2du0d  -0.07159 0.00513
            41  2u2ud0d  -0.09078 0.00824
            52  u22d200  -0.10758 0.01157
            54  u22dud0   0.05106 0.00261
            55  u22udd0  -0.06298 0.00397
            56  u2202d0   0.05549 0.00308
            57  u22d020   0.08355 0.00698
            60  u22du0d  -0.05631 0.00317
            61  u22ud0d   0.05731 0.00328
            63  u22d0ud  -0.08516 0.00725
            65  u22u0dd   0.06221 0.00387
           131  2022200   0.17863 0.03191
           132  2022ud0   0.15975 0.02552
           139  20220ud  -0.08759 0.00767
           152  ud22ud0  -0.05299 0.00281
           153  ud2u2d0  -0.07358 0.00541
           157  ud22u0d   0.05451 0.00297
           158  ud2u20d   0.05115 0.00262
           181  02202ud  -0.05033 0.00253
 
      Natural orbitals and occupation numbers for root  1
      sym 1:   1.941722   1.922938   1.999408   1.876532   0.130952   0.075128   0.053318
 
      Natural orbitals and occupation numbers for root  2
      sym 1:   1.998503   1.935544   0.999988   1.885657   1.000404   0.116025   0.063879
 
      Natural orbitals and occupation numbers for root  3
      sym 1:   1.888478   1.634281   1.999580   1.061658   0.984415   0.331961   0.099627
 
      ************************************************************************************************************************
      *                                                                                                                      *
      *                                                    Final results                                                     *
      *                                                                                                                      *
      ************************************************************************************************************************
 
 
++    Final optimization conditions:
      ------------------------------
 
      Average CI energy                            -306.69696042
      RASSCF energy for state  3                   -306.58588976
      Super-CI energy                                 0.00000000
      RASSCF energy change                            0.00000000
      Max change in MO coefficients               0.000E+00
      Max non-diagonal density matrix element     0.000E+00
      Maximum BLB matrix element                 -4.276E-06
      (orbital pair  22,  53 in symmetry   1)
      Norm of electronic gradient            9.212E-02
--
 
 
      Final state energy(ies):
      ------------------------
 
::    RASSCF root number  1 Total energy:   -306.82867559
::    RASSCF root number  2 Total energy:   -306.67631592
::    RASSCF root number  3 Total energy:   -306.58588976
 
++    Molecular orbitals:
      -------------------
 
      Pseudonatural active orbitals and approximate occupation numbers
 
 
      MOLECULAR ORBITALS FOR SYMMETRY SPECIES 1: a  
 
      INDEX  ENERGY  OCCUPATION COEFFICIENTS ...
          1    0.0000    2.0000                                                                                                           
                71 O6     1s     ( 1.0002)
          2    0.0000    2.0000                                                                                                           
                57 C5     1s     ( 0.9995)
          3    0.0000    2.0000                                                                                                           
                29 C3     1s     ( 0.1170)  43 C4     1s     ( 0.9925)
          4    0.0000    2.0000                                                                                                           
                15 C2     1s     ( 0.9902)  29 C3     1s     ( 0.1101)
          5    0.0000    2.0000                                                                                                           
                15 C2     1s     (-0.1116)  29 C3     1s     ( 0.9864)  43 C4     1s     (-0.1151)
          6    0.0000    2.0000                                                                                                           
                 1 C1     1s     (-0.2342)  90 C8     1s     (-0.9717)
          7    0.0000    2.0000                                                                                                           
                 1 C1     1s     ( 0.9687)  90 C8     1s     (-0.2349)
          8    0.0000    2.0000                                                                                                           
                58 C5     2s     ( 0.2458)  62 C5     2py    ( 0.1190)  72 O6     2s     ( 0.7118)  76 O6     2py    (-0.1175)
      
          9    0.0000    2.0000                                                                                                           
                 2 C1     2s     ( 0.2692)  16 C2     2s     ( 0.3108)  30 C3     2s     ( 0.3057)  44 C4     2s     ( 0.2472)
      
         10    0.0000    2.0000                                                                                                           
                 2 C1     2s     ( 0.3353)  16 C2     2s     ( 0.1549)  18 C2     2px    (-0.1140)  30 C3     2s     (-0.2117)
                44 C4     2s     (-0.3233)  58 C5     2s     (-0.1313)  72 O6     2s     ( 0.1134)  91 C8     2s     ( 0.2091)
               129 H14    1s     ( 0.1045) 134 H15    1s     ( 0.1045)
         11    0.0000    2.0000                                                                                                           
                 4 C1     2px    (-0.1701)  16 C2     2s     (-0.3332)  30 C3     2s     (-0.1087)  32 C3     2px    ( 0.1002)
                44 C4     2s     ( 0.2181)  58 C5     2s     ( 0.1714)  72 O6     2s     (-0.1421)  91 C8     2s     ( 0.3435)
               124 H13    1s     ( 0.1587) 129 H14    1s     ( 0.1451) 134 H15    1s     ( 0.1451)
         12    0.0000    2.0000                                                                                                           
                 2 C1     2s     (-0.2236)  18 C2     2px    ( 0.1063)  20 C2     2py    ( 0.1135)  30 C3     2s     ( 0.3552)
                46 C4     2px    (-0.1738)  48 C4     2py    (-0.1024)  58 C5     2s     (-0.3820)  72 O6     2s     ( 0.3428)
                76 O6     2py    ( 0.1500)  91 C8     2s     ( 0.1863) 114 H11    1s     (-0.1406)
         13    0.0000    2.0000                                                                                                           
                 2 C1     2s     ( 0.1218)  18 C2     2px    (-0.1220)  30 C3     2s     (-0.1923)  34 C3     2py    ( 0.1425)
                44 C4     2s     ( 0.2865)  46 C4     2px    (-0.1140)  48 C4     2py    ( 0.1410)  58 C5     2s     (-0.2085)
                60 C5     2px    (-0.2126)  72 O6     2s     ( 0.2088)  76 O6     2py    ( 0.1855)  78 O6     2pz    (-0.1071)
               104 H9     1s     (-0.2081) 109 H10    1s     ( 0.2364) 114 H11    1s     (-0.2293)
         14    0.0000    2.0000                                                                                                           
                 2 C1     2s     ( 0.2931)   6 C1     2py    (-0.1373)  16 C2     2s     (-0.2738)  20 C2     2py    (-0.1691)
                32 C3     2px    ( 0.1743)  58 C5     2s     (-0.1517)  72 O6     2s     ( 0.1836)  76 O6     2py    ( 0.1356)
                85 H7     1s     ( 0.2481)  93 C8     2px    ( 0.1485) 104 H9     1s     ( 0.1299) 119 H12    1s     (-0.2559)
               124 H13    1s     (-0.1195)
         15    0.0000    2.0000                                                                                                           
                 6 C1     2py    ( 0.1234)  18 C2     2px    (-0.1815)  30 C3     2s     (-0.1028)  32 C3     2px    ( 0.1498)
                46 C4     2px    ( 0.1145)  48 C4     2py    (-0.1426)  62 C5     2py    (-0.2940)  64 C5     2pz    ( 0.1699)
                72 O6     2s     ( 0.3677)  74 O6     2px    ( 0.2415)  76 O6     2py    ( 0.3997)  78 O6     2pz    (-0.2310)
                85 H7     1s     (-0.1082) 109 H10    1s     (-0.1143) 114 H11    1s     ( 0.1769)
         16    0.0000    2.0000                                                                                                           
                 2 C1     2s     (-0.1456)   6 C1     2py    ( 0.1447)  20 C2     2py    (-0.1490)  34 C3     2py    (-0.2702)
                36 C3     2pz    ( 0.1560)  46 C4     2px    ( 0.2619)  48 C4     2py    ( 0.1293)  60 C5     2px    (-0.3437)
                76 O6     2py    ( 0.1270)  85 H7     1s     (-0.1110)  93 C8     2px    (-0.1808) 104 H9     1s     ( 0.1875)
               114 H11    1s     (-0.1936)
         17    0.0000    2.0000                                                                                                           
                 2 C1     2s     (-0.1198)   4 C1     2px    ( 0.1785)   6 C1     2py    (-0.1216)  16 C2     2s     ( 0.1358)
                18 C2     2px    ( 0.2234)  32 C3     2px    (-0.2410)  48 C4     2py    ( 0.1841)  50 C4     2pz    (-0.1063)
                62 C5     2py    (-0.1974)  64 C5     2pz    ( 0.1140)  72 O6     2s     ( 0.1548)  74 O6     2px    ( 0.1543)
                76 O6     2py    ( 0.2667)  78 O6     2pz    (-0.1542)  85 H7     1s     ( 0.1476)  95 C8     2py    (-0.2158)
                97 C8     2pz    ( 0.1246) 109 H10    1s     ( 0.1168) 114 H11    1s     ( 0.1977) 129 H14    1s     ( 0.1152)
               134 H15    1s     ( 0.1152)
         18    0.0000    2.0000                                                                                                           
                 6 C1     2py    ( 0.1985)   8 C1     2pz    (-0.1146)  18 C2     2px    ( 0.1119)  20 C2     2py    (-0.2657)
                22 C2     2pz    ( 0.1534)  46 C4     2px    (-0.2549)  60 C5     2px    ( 0.2344)  74 O6     2px    ( 0.1016)
                93 C8     2px    (-0.2300)  95 C8     2py    ( 0.1772)  97 C8     2pz    (-0.1023) 109 H10    1s     ( 0.2386)
               114 H11    1s     ( 0.1809) 119 H12    1s     (-0.2663) 124 H13    1s     ( 0.2012)
         19    0.0000    2.0000                                                                                                           
                95 C8     2py    ( 0.2893)  97 C8     2pz    ( 0.5011) 129 H14    1s     ( 0.3713) 134 H15    1s     (-0.3713)
      
         20    0.0000    2.0000                                                                                                           
                 4 C1     2px    (-0.2466)   6 C1     2py    (-0.1477)  20 C2     2py    ( 0.1604)  34 C3     2py    (-0.2480)
                36 C3     2pz    ( 0.1432)  46 C4     2px    (-0.1028)  48 C4     2py    ( 0.2667)  50 C4     2pz    (-0.1540)
                93 C8     2px    ( 0.2526)  95 C8     2py    ( 0.2062)  97 C8     2pz    (-0.1190) 104 H9     1s     ( 0.2777)
               109 H10    1s     ( 0.2439) 114 H11    1s     ( 0.1153) 119 H12    1s     ( 0.1049) 129 H14    1s     (-0.1463)
               134 H15    1s     (-0.1463)
         21    0.0000    2.0000                                                                                                           
                 6 C1     2py    ( 0.2085)   8 C1     2pz    (-0.1204)  18 C2     2px    (-0.1911)  20 C2     2py    (-0.1319)
                32 C3     2px    ( 0.2138)  46 C4     2px    (-0.1363)  60 C5     2px    ( 0.1267)  85 H7     1s     (-0.2062)
                93 C8     2px    ( 0.1228)  95 C8     2py    (-0.3473)  97 C8     2pz    ( 0.2005) 104 H9     1s     ( 0.1825)
               109 H10    1s     ( 0.1760) 124 H13    1s     (-0.3468) 129 H14    1s     ( 0.1796) 134 H15    1s     ( 0.1796)
      
         22    0.0000    2.0000                                                                                                           
                 4 C1     2px    ( 0.3362)  18 C2     2px    (-0.3067)  30 C3     2s     (-0.1058)  32 C3     2px    ( 0.2805)
                85 H7     1s     ( 0.3257)  93 C8     2px    (-0.3312) 104 H9     1s     ( 0.2142) 109 H10    1s     ( 0.1116)
               119 H12    1s     ( 0.3079) 124 H13    1s     ( 0.1692)
         23    0.0000    1.9245                                                                                                           
                36 C3     2pz    ( 0.1667)  48 C4     2py    ( 0.1455)  50 C4     2pz    ( 0.2518)  62 C5     2py    ( 0.2193)
                64 C5     2pz    ( 0.3799)  76 O6     2py    ( 0.2923)  78 O6     2pz    ( 0.5059)
         24    0.0000    1.7812                                                                                                           
                 6 C1     2py    ( 0.1342)   8 C1     2pz    ( 0.2325)  20 C2     2py    ( 0.2340)  22 C2     2pz    ( 0.4053)
                34 C3     2py    ( 0.2131)  36 C3     2pz    ( 0.3693)  48 C4     2py    ( 0.1114)  50 C4     2pz    ( 0.1929)
                64 C5     2pz    (-0.1086)  76 O6     2py    (-0.1648)  78 O6     2pz    (-0.2847)
         25    0.0000    1.6663                                                                                                           
                44 C4     2s     (-0.1531)  46 C4     2px    (-0.1898)  60 C5     2px    ( 0.1567)  74 O6     2px    (-0.8843)
                76 O6     2py    ( 0.3303)  78 O6     2pz    (-0.1903) 114 H11    1s     ( 0.2127)
         26    0.0000    1.5634                                                                                                           
                 6 C1     2py    (-0.2623)   8 C1     2pz    (-0.4544)  20 C2     2py    (-0.1759)  22 C2     2pz    (-0.3046)
                34 C3     2py    ( 0.1379)  36 C3     2pz    ( 0.2387)  48 C4     2py    ( 0.2325)  50 C4     2pz    ( 0.4031)
                76 O6     2py    (-0.1871)  78 O6     2pz    (-0.3249)
         27    0.0000    0.7340                                                                                                           
                 6 C1     2py    (-0.2688)   8 C1     2pz    (-0.4656)  22 C2     2pz    ( 0.1222)  34 C3     2py    ( 0.3065)
                36 C3     2pz    ( 0.5310)  48 C4     2py    (-0.2024)  50 C4     2pz    (-0.3508)  62 C5     2py    (-0.2684)
                64 C5     2pz    (-0.4648)  76 O6     2py    ( 0.2670)  78 O6     2pz    ( 0.4622)
         28    0.0000    0.2260                                                                                                           
                 6 C1     2py    (-0.3758)   8 C1     2pz    (-0.6509)  20 C2     2py    ( 0.4310)  22 C2     2pz    ( 0.7465)
                23 C2     3pz    ( 0.1401)  34 C3     2py    (-0.1607)  36 C3     2pz    (-0.2784)  48 C4     2py    (-0.1429)
                50 C4     2pz    (-0.2473)  62 C5     2py    ( 0.2833)  64 C5     2pz    ( 0.4904)  76 O6     2py    (-0.1715)
                78 O6     2pz    (-0.2969) 129 H14    1s     ( 0.1328) 134 H15    1s     (-0.1328)
         29    0.0000    0.1045                                                                                                           
                 6 C1     2py    (-0.1206)   8 C1     2pz    (-0.2090)  20 C2     2py    ( 0.2388)  22 C2     2pz    ( 0.4137)
                34 C3     2py    (-0.3697)  36 C3     2pz    (-0.6405)  48 C4     2py    ( 0.4035)  50 C4     2pz    ( 0.6986)
                62 C5     2py    (-0.3181)  64 C5     2pz    (-0.5505)  76 O6     2py    ( 0.1739)  78 O6     2pz    ( 0.3011)
      
         30    0.0000    0.0000                                                                                                           
                 2 C1     2s     (-0.4146)   3 C1     3s     (-0.1787)   4 C1     2px    (-0.4484)   5 C1     3px    (-0.3040)
                16 C2     2s     (-0.4435)  17 C2     3s     (-0.1766)  18 C2     2px    ( 0.1497)  20 C2     2py    (-0.3320)
                21 C2     3py    (-0.2525)  22 C2     2pz    ( 0.1917)  23 C2     3pz    ( 0.1458)  30 C3     2s     (-0.2419)
                31 C3     3s     (-0.1080)  32 C3     2px    (-0.3719)  33 C3     3px    (-0.2922)  34 C3     2py    ( 0.1180)
                44 C4     2s     (-0.1874)  46 C4     2px    ( 0.1256)  48 C4     2py    (-0.2472)  49 C4     3py    (-0.2160)
                50 C4     2pz    ( 0.1427)  51 C4     3pz    ( 0.1247)  60 C5     2px    (-0.1408)  61 C5     3px    (-0.1137)
                62 C5     2py    ( 0.1156)  85 H7     1s     ( 0.3084)  86 H7     2s     ( 0.2731)  90 C8     1s     (-0.2283)
                91 C8     2s     (-1.6076)  92 C8     3s     (-0.6556)  93 C8     2px    ( 0.2583) 104 H9     1s     ( 0.2827)
               105 H9     2s     ( 0.2182) 109 H10    1s     ( 0.2704) 110 H10    2s     ( 0.2011) 114 H11    1s     ( 0.1855)
               115 H11    2s     ( 0.1357) 119 H12    1s     ( 0.2893) 120 H12    2s     ( 0.2587) 124 H13    1s     ( 0.5133)
               125 H13    2s     ( 0.3741) 129 H14    1s     ( 0.5462) 130 H14    2s     ( 0.3946) 134 H15    1s     ( 0.5462)
               135 H15    2s     ( 0.3946)
         31    0.0000    0.0000                                                                                                           
                 2 C1     2s     (-0.5638)   3 C1     3s     (-0.2222)   4 C1     2px    ( 0.1936)   5 C1     3px    ( 0.2231)
                 6 C1     2py    ( 0.4078)   7 C1     3py    ( 0.3034)   8 C1     2pz    (-0.2354)   9 C1     3pz    (-0.1752)
                18 C2     2px    ( 0.4649)  19 C2     3px    ( 0.4633)  29 C3     1s     (-0.1334)  30 C3     2s     (-0.8961)
                31 C3     3s     (-0.3653)  34 C3     2py    ( 0.5548)  35 C3     3py    ( 0.3847)  36 C3     2pz    (-0.3203)
                37 C3     3pz    (-0.2221)  44 C4     2s     (-0.1139)  46 C4     2px    ( 0.5711)  47 C4     3px    ( 0.5120)
                57 C5     1s     (-0.1565)  58 C5     2s     (-1.0534)  59 C5     3s     (-0.4444)  60 C5     2px    ( 0.1437)
                61 C5     3px    ( 0.2997)  62 C5     2py    ( 0.4289)  63 C5     3py    ( 0.2269)  64 C5     2pz    (-0.2475)
                65 C5     3pz    (-0.1308)  72 O6     2s     (-0.2463)  85 H7     1s     ( 0.3589)  86 H7     2s     ( 0.2717)
                91 C8     2s     ( 0.5667)  92 C8     3s     ( 0.2333)  93 C8     2px    ( 0.3970)  94 C8     3px    ( 0.4557)
                95 C8     2py    ( 0.1222)  96 C8     3py    ( 0.1002) 104 H9     1s     ( 0.6059) 105 H9     2s     ( 0.4744)
               109 H10    1s     ( 0.2501) 110 H10    2s     ( 0.2279) 114 H11    1s     ( 0.4529) 115 H11    2s     ( 0.4077)
               119 H12    1s     ( 0.1149)
         32    0.0000    0.0000                                                                                                           
                 2 C1     2s     ( 0.5943)   3 C1     3s     ( 0.2354)   4 C1     2px    ( 0.3667)   5 C1     3px    ( 0.2202)
                 6 C1     2py    ( 0.2474)   7 C1     3py    ( 0.3115)   8 C1     2pz    (-0.1428)   9 C1     3pz    (-0.1799)
                15 C2     1s     (-0.1475)  16 C2     2s     (-0.9672)  17 C2     3s     (-0.3830)  18 C2     2px    ( 0.3784)
                19 C2     3px    ( 0.1976)  21 C2     3py    ( 0.1951)  23 C2     3pz    (-0.1126)  30 C3     2s     ( 0.2660)
                32 C3     2px    ( 0.1465)  34 C3     2py    ( 0.2524)  35 C3     3py    ( 0.2978)  36 C3     2pz    (-0.1457)
                37 C3     3pz    (-0.1720)  43 C4     1s     (-0.1872)  44 C4     2s     (-1.2557)  45 C4     3s     (-0.5017)
                46 C4     2px    ( 0.2627)  48 C4     2py    (-0.1462)  58 C5     2s     ( 0.1208)  60 C5     2px    (-0.2165)
                61 C5     3px    (-0.2555)  62 C5     2py    ( 0.1711)  63 C5     3py    ( 0.2140)  65 C5     3pz    (-0.1236)
                72 O6     2s     (-0.2171)  85 H7     1s     (-0.2387)  86 H7     2s     (-0.1733)  91 C8     2s     ( 0.1791)
                93 C8     2px    ( 0.1469)  94 C8     3px    ( 0.1090)  96 C8     3py    ( 0.1626) 104 H9     1s     (-0.1369)
               109 H10    1s     ( 0.5532) 110 H10    2s     ( 0.4488) 114 H11    1s     ( 0.1071) 119 H12    1s     ( 0.4954)
[...]
 
  The CI coefficients for the MIXED state nr.   3
--------------------------------------------------------------------------------
 CI COEFFICIENTS LARGER THAN  5.00E-02
  Occupation of active orbitals, and spin coupling
  of open shells. (u,d: Spin up or down).
  SGUGA info is (Midvert:IsyUp:UpperWalk/LowerWalk)
        Conf  SGUGA info        Occupation    Coefficient         Weight
           2  ( 1:1:   2/   1)   222ud00        -0.215109       0.046272
           3  ( 1:1:   3/   1)   2220200        -0.488839       0.238964
           4  ( 1:1:   4/   1)   222u0d0         0.351860       0.123806
           5  ( 1:1:   5/   1)   2220ud0        -0.252583       0.063798
           7  ( 1:1:   7/   1)   222u00d         0.166338       0.027668
           9  ( 1:1:   9/   1)   22200ud         0.137201       0.018824
          10  ( 1:1:  10/   1)   2220002         0.085853       0.007371
          31  ( 2:1:   1/   2)   2u22d00         0.446865       0.199689
          33  ( 2:1:   3/   2)   2u220d0         0.213197       0.045453
          35  ( 2:1:   5/   2)   2u2udd0        -0.134430       0.018071
          37  ( 2:1:   7/   2)   2u2d020        -0.060884       0.003707
          39  ( 2:1:   9/   2)   2u2200d        -0.082894       0.006871
          40  ( 2:1:  10/   2)   2u2du0d        -0.073082       0.005341
          41  ( 2:1:  11/   2)   2u2ud0d        -0.090625       0.008213
          52  ( 2:1:   2/   3)   u22d200        -0.107458       0.011547
          54  ( 2:1:   4/   3)   u22dud0         0.050359       0.002536
          55  ( 2:1:   5/   3)   u22udd0        -0.062826       0.003947
          56  ( 2:1:   6/   3)   u2202d0         0.055302       0.003058
          57  ( 2:1:   7/   3)   u22d020         0.083893       0.007038
          60  ( 2:1:  10/   3)   u22du0d        -0.054641       0.002986
          61  ( 2:1:  11/   3)   u22ud0d         0.056728       0.003218
          63  ( 2:1:  13/   3)   u22d0ud        -0.085167       0.007253
          65  ( 2:1:  15/   3)   u22u0dd         0.062281       0.003879
         131  ( 3:1:   1/   4)   2022200         0.179892       0.032361
         132  ( 3:1:   2/   4)   2022ud0         0.159799       0.025536
         139  ( 3:1:   9/   4)   20220ud        -0.087056       0.007579
         152  ( 3:1:   2/   5)   ud22ud0        -0.053921       0.002908
         153  ( 3:1:   3/   5)   ud2u2d0        -0.073556       0.005410
         157  ( 3:1:   7/   5)   ud22u0d         0.056001       0.003136
         158  ( 3:1:   8/   5)   ud2u20d         0.051272       0.002629
         171  ( 3:1:   1/   6)   0222200         0.050257       0.002526
         181  ( 3:1:  11/   6)   02202ud        -0.050084       0.002508
 
--
 
++ I/O STATISTICS
 
  I. General I/O information
  - - - - - - - - - - - - - - - - - - - - - - - - - - - - - - - - - - - - - - - - - - -
  Unit  Name          Flsize      Write/Read            MBytes           Write/Read
                      (MBytes)       Calls              In/Out           Time, sec.
  - - - - - - - - - - - - - - - - - - - - - - - - - - - - - - - - - - - - - - - - - - -
   1  RUNFILE           1.17 .     154/    1538 .      1.1/     11.0 .       0/       0
   2  LUSOLV            0.87 .     163/     166 .      5.5/      5.7 .       0/       0
   3  LUSBT             9.12 .     222/    3057 .     21.7/    328.7 .       0/       0
   4  LUHLF1            0.00 .       0/       0 .      0.0/      0.0 .       0/       0
   5  LUHLF2            0.00 .       0/       0 .      0.0/      0.0 .       0/       0
   6  LUHLF3            0.00 .       0/       0 .      0.0/      0.0 .       0/       0
   7  DRARR            12.97 .      12/      24 .     38.9/     91.9 .       0/       0
   8  DRARRT            0.00 .       0/       0 .      0.0/      0.0 .       0/       0
   9  RHS_01           24.84 .      39/     312 .     74.4/    595.4 .       0/       0
  10  RHS_02           24.84 .     405/    1083 .    696.5/   2084.3 .       0/       0
  11  RHS_03           24.84 .     483/    1224 .    930.5/   2344.7 .       1/       0
  12  RHS_04           24.84 .     903/    2703 .   1494.1/   5211.1 .       2/       0
  13  RHS_05           24.84 .    1704/    1899 .   3313.2/   3685.3 .       8/       0
  14  RHS_06           24.84 .      90/     168 .    157.4/    306.4 .       2/       0
  15  RHS_07            0.00 .       0/       0 .      0.0/      0.0 .       0/       0
  16  RHS_08            0.00 .       0/       0 .      0.0/      0.0 .       0/       0
  17  H0T_01            0.00 .       0/       0 .      0.0/      0.0 .       0/       0
  18  H0T_02            0.00 .       0/       0 .      0.0/      0.0 .       0/       0
  19  H0T_03            0.00 .       0/       0 .      0.0/      0.0 .       0/       0
  20  H0T_04            0.00 .       0/       0 .      0.0/      0.0 .       0/       0
  21  LUDMAT            0.22 .      24/      21 .      0.7/      0.6 .       3/       0
  22  LUCIEX            0.02 .      12/      54 .      0.0/      0.2 .       0/       0
  23  MOLONE            0.45 .      13/       4 .      1.5/      0.6 .       0/       0
  24  MOLINT            0.00 .       0/       0 .      0.0/      0.0 .       0/       0
  25  JOBIPH            2.45 .       1/      49 .      0.0/      1.6 .       0/       0
  26  CHRED             0.16 .       0/      16 .      0.0/      0.6 .       0/       0
  27  CHVEC1           48.73 .       0/       6 .      0.0/    292.4 .       0/       1
  28  CHORST            0.03 .       0/      12 .      0.0/      0.0 .       0/       0
  29  CHOMAP            0.01 .       0/       0 .      0.0/      0.0 .       0/       0
  30  ONEINT            3.48 .       0/      36 .      0.0/      8.3 .       0/       0
  31  JOBMIX            2.45 .      37/       0 .      1.4/      0.0 .       0/       0
  - - - - - - - - - - - - - - - - - - - - - - - - - - - - - - - - - - - - - - - - - - -
   *  TOTAL           231.17 .    4262/   12372 .   6736.9/  14969.0 .      20/       5
  - - - - - - - - - - - - - - - - - - - - - - - - - - - - - - - - - - - - - - - - - - -
 
  II. I/O Access Patterns
  - - - - - - - - - - - - - - - - - - - -
  Unit  Name               % of random
                         Write/Read calls
  - - - - - - - - - - - - - - - - - - - -
   1  RUNFILE             28.6/  10.9
   2  LUSOLV              21.5/  23.5
   3  LUSBT               95.5/  79.6
   4  LUHLF1               0.0/   0.0
   5  LUHLF2               0.0/   0.0
   6  LUHLF3               0.0/   0.0
   7  DRARR               66.7/ 100.0
   8  DRARRT               0.0/   0.0
   9  RHS_01              28.2/  30.8
  10  RHS_02              93.1/  29.4
  11  RHS_03              94.2/  30.1
  12  RHS_04              92.9/  28.4
  13  RHS_05              78.8/  28.0
  14  RHS_06              58.9/  23.2
  15  RHS_07               0.0/   0.0
  16  RHS_08               0.0/   0.0
  17  H0T_01               0.0/   0.0
  18  H0T_02               0.0/   0.0
  19  H0T_03               0.0/   0.0
  20  H0T_04               0.0/   0.0
  21  LUDMAT              20.8/  28.6
  22  LUCIEX              75.0/  81.5
  23  MOLONE              46.2/ 100.0
  24  MOLINT               0.0/   0.0
  25  JOBIPH             100.0/  95.9
  26  CHRED                0.0/  37.5
  27  CHVEC1               0.0/  83.3
  28  CHORST               0.0/   0.0
  29  CHOMAP               0.0/   0.0
  30  ONEINT               0.0/  16.7
  31  JOBMIX              97.3/   0.0
  - - - - - - - - - - - - - - - - - - - -
--
--- Stop Module: caspt2 at Mon Nov  3 15:41:50 2025 /rc=_RC_ALL_IS_WELL_ ---
*** files: xmldump
    saved to directory /dodrio/scratch/projects/starting_2025_097/speedup_mscaspt2/full_mscaspt2/mscaspt2
--- Module caspt2 spent 50 seconds ---

>>> COPY mscaspt2.JobMix JOB001

*** symbolic link created: INPORB -> mscaspt2.RasOrb
--- Start Module: rassi at Mon Nov  3 15:41:50 2025 ---
 
()()()()()()()()()()()()()()()()()()()()()()()()()()()()()()()()()()()()()()()()()()()()()()()()()()

                                               &RASSI

                                   only a single process is used
                       available to each process: 4.0 GB of memory, 1 thread
                                            pid: 2555997
()()()()()()()()()()()()()()()()()()()()()()()()()()()()()()()()()()()()()()()()()()()()()()()()()()
 
 
      ********************************************************************************
      *                                                                              *
      *                             General data section                             *
      *                                                                              *
      ********************************************************************************
 
   Specific data for JOBIPH file JOB001
   -------------------------------------
 
   Header from SEWARD:
                                                                               
        Integrals generated by Gateway/Seward, Mon Nov  3 15:40:28 2025        
 
   CASSCF title (first line only):
       (No title given)                                                        
 
  STATE IRREP:                1
  SPIN MULTIPLICITY:          1
  ACTIVE ELECTRONS:           8
  MAX RAS1 HOLES:             0
  MAX RAS3 ELECTRONS:         0
  NR OF CONFIG:             490
   Wave function type WFTYPE=GENERAL 
 ###############################################################################
 ###############################################################################
 ###                                                                         ###
 ###                                                                         ###
 ###    WARNING: EJOB used when HEFF is available, possible                  ###
 ###    extra interaction between states is ignored!                         ###
 ###                                                                         ###
 ###                                                                         ###
 ###############################################################################
 ###############################################################################
 
   The following data are common to all the states:
   ------------------------------------------------
   (note: frozen counts as inactive, deleted as secondary)
 
      Nr of irreps: 1
 
                 Total     No./Irrep 
      Irrep                  1
                             a
 
      INACTIVE      22      22
      ACTIVE         7       7
      SECONDARY    109     109
      BASIS        138     138
 
      RAS1           0       0
      RAS2           7       7
      RAS3           0       0
 
        MATRIX ELEMENTS WILL BE COMPUTED FOR THE FOLLOWING ONE-ELECTRON OPERATOR
 S, UNLESS ZERO BY SYMMETRY.
   (Herm=Hermitian, Anti=Antihermitian, Sing=Singlet operator, Trip=Triplet oper
 ator)
     MLTPL  0   1 (HERMSING)     MLTPL  1   1 (HERMSING)     MLTPL  1   2 (HERMSING)
     MLTPL  1   3 (HERMSING)     MLTPL  2   1 (HERMSING)     MLTPL  2   2 (HERMSING)
     MLTPL  2   3 (HERMSING)     MLTPL  2   4 (HERMSING)     MLTPL  2   5 (HERMSING)
     MLTPL  2   6 (HERMSING)     VELOCITY   1 (ANTISING)     VELOCITY   2 (ANTISING)
     VELOCITY   3 (ANTISING)     ANGMOM     1 (ANTISING)     ANGMOM     2 (ANTISING)
     ANGMOM     3 (ANTISING)     MLTPV  2   1 (ANTISING)     MLTPV  2   2 (ANTISING)
     MLTPV  2   3 (ANTISING)     MLTPV  2   4 (ANTISING)     MLTPV  2   5 (ANTISING)
     MLTPV  2   6 (ANTISING)
 
       EIGENSTATES OF A SPIN-FREE HAMILTONIAN WILL BE COMPUTED BASED ON:
 
  a Hamiltonian matrix assumed to be diagonal with energies read from the wavefu
 nction file(s).
 
  Nr of states:                     3
 
   State:        1   2   3
  JobIph:        1   1   1
 Root nr:        1   2   3
 
  HAMILTONIAN MATRIX FOR THE ORIGINAL STATES:
 
  Diagonal, with energies
   -307.71844960   -307.57421597   -307.48438489
 
      OVERLAP MATRIX FOR THE ORIGINAL STATES:
 
  Diagonal, with elements
      1.00000000      1.00000000      1.00000000
 
::    RASSI State    1     Total energy:    -307.71844960424556
::    RASSI State    2     Total energy:    -307.57421597450673
::    RASSI State    3     Total energy:    -307.48438489411285
 
 
 
      ****************************************************************************************************
      *                                                                                                  *
      *                                         Spin-free section                                        *
      *                                                                                                  *
      *                 Note: index according to input order, order according to energy.                 *
      *                                                                                                  *
      ****************************************************************************************************
 
 
 
  SPIN-FREE ENERGIES:
  (Shifted by EMIN (a.u.) =       -307.7184496042)
 
 SF State       Relative EMIN(au)   Rel lowest level(eV)    D:o, cm**(-1)
 
     1             0.0000000000        0.0000000000              0.0000
     2             0.1442336297        3.9247970085          31655.6227
     3             0.2340647101        6.3692252340          51371.2660
 
   Spin-free eigenstates in basis of input states:
   -----------------------------------------------
 
     Eigenstate No.    1 energy=   -307.7184496042
           1.0000000      0.0000000      0.0000000
     Eigenstate No.    2 energy=   -307.5742159745
           0.0000000      1.0000000      0.0000000
     Eigenstate No.    3 energy=   -307.4843848941
           0.0000000      0.0000000      1.0000000
     Eigenstate No.    1 energy=   -307.7184496042
 1 1.000000                                                                     
                      
 
     Eigenstate No.    2 energy=   -307.5742159745
 2 1.000000                                                                     
                      
 
     Eigenstate No.    3 energy=   -307.4843848941
 3 1.000000                                                                     
                      
 
 
  THE INPUT RASSCF STATES REEXPRESSED IN EIGENSTATES:
 
 INPUT STATE NR.:    1
  OVERLAP WITH THE EIGENSTATES:
       1.0000000       0.0000000       0.0000000
 
 INPUT STATE NR.:    2
  OVERLAP WITH THE EIGENSTATES:
       0.0000000       1.0000000       0.0000000
 
 INPUT STATE NR.:    3
  OVERLAP WITH THE EIGENSTATES:
       0.0000000       0.0000000       1.0000000
 
 
++ Dipole transition strengths (spin-free states):
   -----------------------------------------------
     for osc. strength at least  1.00000000E-05
 
      From   To        Osc. strength     Einstein coefficients Ax, Ay, Az (sec-1)    Total A (sec-1)
     -----------------------------------------------------------------------------------------------
         1    3       1.14328891E-02  1.38920426E+07  4.67773606E+06  1.55535410E+06  2.01251328E+07
     -----------------------------------------------------------------------------------------------
--
 
++ Dipole transition vectors (spin-free states):
   ---------------------------------------------
     for vector sizes at least  1.00000000E-04
 
      From   To                   Dx              Dy              Dz  Total D (a.u.)
     -------------------------------------------------------------------------------
         1    2       2.58464933E-05 -8.72893699E-04 -1.28704885E-03  1.55534761E-03
         1    3      -2.24889579E-01 -1.30498084E-01  7.52490319E-02  2.70679680E-01
         2    3      -1.28065620E-04  2.08938534E-03  3.71593750E-03  4.26498809E-03
     -----------------------------------------------------------------------------------------------
--
 
++ Velocity transition strengths (spin-free states):
   -------------------------------------------------
     for osc. strength at least  1.00000000E-05
 
      From   To        Osc. strength     Einstein coefficients Ax, Ay, Az (sec-1)    Total A (sec-1)
     -----------------------------------------------------------------------------------------------
         1    3       7.93360412E-03  8.04626486E+06  4.44177055E+06  1.47736169E+06  1.39653971E+07
     -----------------------------------------------------------------------------------------------
--
 
++ Length and velocity gauge comparison (spin-free states):
   --------------------------------------------------------
 
 --------------------------------------------------
 A comparison between the dipole oscillator strengths in 
 length and velocity gauge will be performed
 
     All dipole oscillator differences above the tolerance of   1.00000000E-01  will be printed 
 
 Due to basis set deficiency these oscillator may be problematic 
 
 The tolerance is defined as ABS(1-O_l/O_v) 
 O_l : dipole oscillator strength in length gauge
 O_p : dipole oscillator strength in velocity gauge
 --------------------------------------------------
 
  Problematic transitions have been found
 
      From   To       Difference (%) Osc. st. (len.) Osc. st. (vel.)
     ---------------------------------------------------------------
         1    3            44.107129  1.14328891E-02  7.93360412E-03
     ---------------------------------------------------------------
 
 Number of problematic transitions =                      1
 
--
 
 Electric-dipole - electric-octupole not included
 Electric-dipole - magnetic-quadrupole not included
 
 
      ****************************************************************************************************
      *                                                                                                  *
      *                                    Special properties section                                    *
      *                                                                                                  *
      ****************************************************************************************************
 
 
++ I/O STATISTICS
 
  I. General I/O information
  - - - - - - - - - - - - - - - - - - - - - - - - - - - - - - - - - - - - - - - - - - -
  Unit  Name          Flsize      Write/Read            MBytes           Write/Read
                      (MBytes)       Calls              In/Out           Time, sec.
  - - - - - - - - - - - - - - - - - - - - - - - - - - - - - - - - - - - - - - - - - - -
   1  RUNFILE           1.17 .     266/    1568 .      1.9/     11.4 .       0/       0
   2  ANNI              0.00 .       0/       0 .      0.0/      0.0 .       0/       0
   3  ONEINT            3.48 .       0/    1725 .      0.0/    422.6 .       0/       0
   4  JOB001            2.45 .       0/      68 .      0.0/      1.5 .       0/       0
  - - - - - - - - - - - - - - - - - - - - - - - - - - - - - - - - - - - - - - - - - - -
   *  TOTAL             7.09 .     266/    3361 .      1.9/    435.5 .       0/       0
  - - - - - - - - - - - - - - - - - - - - - - - - - - - - - - - - - - - - - - - - - - -
 
  II. I/O Access Patterns
  - - - - - - - - - - - - - - - - - - - -
  Unit  Name               % of random
                         Write/Read calls
  - - - - - - - - - - - - - - - - - - - -
   1  RUNFILE             28.6/  10.2
   2  ANNI                 0.0/   0.0
   3  ONEINT               0.0/  25.4
   4  JOB001               0.0/  85.3
  - - - - - - - - - - - - - - - - - - - -
--
--- Stop Module: rassi at Mon Nov  3 15:41:53 2025 /rc=_RC_ALL_IS_WELL_ ---
*** files: mscaspt2.rassi.h5 xmldump
    saved to directory /dodrio/scratch/projects/starting_2025_097/speedup_mscaspt2/full_mscaspt2/mscaspt2
--- Module rassi spent 2 seconds ---

.##################.
.# Happy landing! #.
.##################.

    Timing: Wall=104.73 User=29.69 System=8.27
