   This run of MOLCAS is using the pymolcas driver

                             OPE
                             OPE          NMOL  CASOP  ENMOLC A   SO
                 OPE        NMOLC        AS  OP EN  MO LC     AS  OP
                OPENM       OL CA        SO  PE NM  OL CA     SOP EN
                OP EN      MO   LC       AS  OP ENMOL  CASO   PENMOL
                OP  EN     MO   LC       AS  OP EN     MO     LC ASO
               OP   E  NMOL  C  AS       OP  EN MO     LC     AS  OP
               OP  E   NMO   LC AS        OPEN  MO     LCASOP EN   M
               O  PEN   MO  LCA  SO
            OPE   NMO   L   CAS    OP
        OPENMOL  CASOP     ENMOL   CASOPE
     OPENMOLCA   SOPENMOLCASOPEN   MOLCASOPE
    OPENMOLCAS   OP           EN   MOL    CAS
    OPENMOLCAS       OP  ENM        O     LCA
    OPENMOLCAS    OPEN  MOLCASO     P  E  NMO
    OPENMOLCAS     OP               E  N  MOL
    OPENMOLCA   SO           PENM   O  L  CAS    OPEN    MO    LCAS
    OPENMOLCA   SOP           ENM   O  L  CAS   OP  EN  MOLC  AS   O
    OPENMOLCA   SOPE           NM      O  LCA   S      OP  EN MO
    OPENMOLC                AS         O  PEN   M      OL  CA  SOPE
    OPENMO        LCASOPE  NMOL        C  ASO   P      ENMOLC     AS
    OPE     NMO      LCA  SO     P     E   NM   OL  CA SO  PE N   MO
          OPENMOLCA            SOPE   NMO        LCAS  O    P  ENMO
     OPENMOLCASOPENMOLCASOPENMOLCASOPENMOLCA
        OPENMOLCASOPENMOLCASOPENMOLCASOPE
            OPENMOLCASOPENMOLCASOPENM
               OPENMOLCASOPENMOLCA        version: v25.06 ?
                   OPENMOLCASO
                       OPE                tag:

 OpenMolcas is free software; you can redistribute it and/or modify it
 under the terms of the GNU Lesser General Public License version 2.1.
 OpenMolcas is distributed in the hope that it will be useful, but it
 is provided "as is" and without any express or implied warranties.
 For more details see the full text of the license in the file
 LICENSE or in <http://www.gnu.org/licenses/>.

                 Copyright (C) The OpenMolcas Authors
           For the author list and the recommended citation,
                   consult the file CONTRIBUTORS.md

           *************************************************
           * pymolcas version py2.29                       *
           *   build 637753c454b0e8fef9459a9b878b37a5      *
           *   (after the EMIL interpreter by V. Veryazov) *
           *************************************************

configuration info
------------------
Host name: node5385.dodrio.os (Linux)
C Compiler ID: IntelLLVM
C flags: -O2 -march=core-avx2 -fp-model precise -std=gnu99 -qopenmp
Fortran Compiler ID: Intel
Fortran flags: -O2 -march=core-avx2 -fp-model precise  -fpp -i8 -heap-arrays -qopenmp
Definitions: _MOLCAS_;_I8_;_LINUX_
Parallel: OFF (GA=OFF)


   -------------------------------------------------------------------------------------------------------------------
  |
  |           Project: seperate_mscapst2_1
  |    Submitted from: /dodrio/scratch/projects/starting_2025_097/speedup_mscaspt2/root1
  |      Scratch area: /dodrio/scratch/projects/starting_2025_097/molcas_workdirs/12857634/seperate_mscapst2_1.2576474
  |   Save outputs to: /dodrio/scratch/projects/starting_2025_097/speedup_mscaspt2/root1/seperate_mscapst2_1
  |            Molcas: /readonly/dodrio/apps/RHEL9/zen3-ib/software/OpenMolcas/25.06-iomkl-2023a-DMRG-no-MPI
  |
  | Scratch area is empty
  |
  |    MOLCAS_DRIVER = /readonly/dodrio/apps/RHEL9/zen3-ib/software/OpenMolcas/25.06-iomkl-2023a-DMRG-no-MPI/pymolcas
  |    MOLCAS_MOLDEN = ON
  |    MOLCAS_NPROCS = 1
  |     MOLCAS_PRINT = 12
  |    MOLCAS_SOURCE = /readonly/dodrio/apps/RHEL9/zen3-ib/software/OpenMolcas/25.06-iomkl-2023a-DMRG-no-MPI
  | MOLCAS_STRUCTURE = 0
  |
   -------------------------------------------------------------------------------------------------------------------

++ ---------   Input file   ---------

&GATEWAY
Title
Sorbaledehyde: 3-roots MS-CASPT2/SA-CASSCF
COORD = sorbaldehyde.xyz
GROUP = nosymm
BASIS = ANO-S-VDZP
RICD

&SEWARD
DoAnalytical

&RASSCF
File = sorbaldehyde-04.RasOrb
CIONLY
SPIN=1
CIROOT = 3 3 1
Inactive = 22
RAS2 = 7
NACTEL = 8
ORBAppear = COMPACT

&CASPT2
Multistate = all
Imaginary = 0.1
only=1

-- ----------------------------------

--- Start Module: gateway at Mon Nov  3 17:07:53 2025 ---
 
()()()()()()()()()()()()()()()()()()()()()()()()()()()()()()()()()()()()()()()()()()()()()()()()()()

                                              &GATEWAY

                                   only a single process is used
                       available to each process: 4.0 GB of memory, 1 thread
                                            pid: 2576485
()()()()()()()()()()()()()()()()()()()()()()()()()()()()()()()()()()()()()()()()()()()()()()()()()()
 
 
 Title:
                           Sorbaledehyde: 3-roots MS-CASPT2/SA-CASSCF                   
 
 
++    Symmetry information:
      ---------------------
 
                    Character Table for C1 
 
                             E  
                    a        1  x, y, xy, Rz, z, xz, Ry, yz, Rx, I
--
 
 
++    Basis set information:
      ----------------------
 
 
      Basis set label: C.ANO-S...3S2P1D.
 
      Electronic valence basis set:
      ------------------
      Associated Effective Charge   6.000000 au
      Associated Actual Charge      6.000000 au
      Nuclear Model: Point charge
 
      Shell  nPrim  nBasis  Cartesian Spherical Contaminant
         s      10       3        X                  
         p       6       2        X                  
         d       3       1                 X         
 
 
      Basis set label: O.ANO-S...3S2P1D.
 
      Electronic valence basis set:
      ------------------
      Associated Effective Charge   8.000000 au
      Associated Actual Charge      8.000000 au
      Nuclear Model: Point charge
 
      Shell  nPrim  nBasis  Cartesian Spherical Contaminant
         s      10       3        X                  
         p       6       2        X                  
         d       3       1                 X         
 
 
      Basis set label: H.ANO-S...2S1P.
 
      Electronic valence basis set:
      ------------------
      Associated Effective Charge   1.000000 au
      Associated Actual Charge      1.000000 au
      Nuclear Model: Point charge
 
      Shell  nPrim  nBasis  Cartesian Spherical Contaminant
         s       7       2        X                  
         p       3       1        X                  
 
 
      Basis set label: C.ANO-S...3S2P1D.
 
      Electronic valence basis set:
      ------------------
      Associated Effective Charge   6.000000 au
      Associated Actual Charge      6.000000 au
      Nuclear Model: Point charge
 
      Shell  nPrim  nBasis  Cartesian Spherical Contaminant
         s      10       3        X                  
         p       6       2        X                  
         d       3       1                 X         
 
 
      Basis set label: H.ANO-S...2S1P.
 
      Electronic valence basis set:
      ------------------
      Associated Effective Charge   1.000000 au
      Associated Actual Charge      1.000000 au
      Nuclear Model: Point charge
 
      Shell  nPrim  nBasis  Cartesian Spherical Contaminant
         s       7       2        X                  
         p       3       1        X                  
--
 
 
++    Molecular structure info:
      -------------------------
 
                    ************************************************ 
                    **** Cartesian Coordinates / bohr, angstrom **** 
                    ************************************************ 
 
     Center  Label                x              y              z                     x              y              z
        1      C1              -1.812812      -2.110142       1.218297             -0.959299      -1.116639       0.644695
        2      C2              -1.059717      -0.033752       0.019574             -0.560778      -0.017861       0.010358
        3      C3               1.603837       0.601706      -0.347366              0.848714       0.318409      -0.183818
        4      C4               2.439610       2.660523      -1.536073              1.290986       1.407888      -0.812855
        5      C5               5.171115       3.129742      -1.806204              2.736436       1.656188      -0.955802
        6      O6               6.059178       4.919091      -2.840513              3.206379       2.603071      -1.503135
        7      H7              -0.387732      -3.388226       1.956156             -0.205179      -1.792972       1.035153
        8      C8              -4.514478      -2.855928       1.648835             -2.388959      -1.511292       0.872526
        9      H9               2.971936      -0.720265       0.415800              1.572681      -0.381148       0.220032
       10      H10              1.171965       4.050129      -2.338415              0.620177       2.143236      -1.237436
       11      H11              6.404512       1.671107      -0.964970              3.389122       0.884312      -0.510640
       12      H12             -2.441760       1.273915      -0.735410             -1.292124       0.674127      -0.389162
       13      H13             -5.809366      -1.473181       0.850539             -3.074184      -0.779574       0.450086
       14      H14             -4.898147      -3.031943       3.668263             -2.591988      -1.604435       1.941161
       15      H15             -4.898140      -4.692778       0.791487             -2.591984      -2.483311       0.418837
 
                    *************************************** 
                    *    InterNuclear Distances / bohr    * 
                    *************************************** 
 
               1 C1            2 C2            3 C3            4 C4            5 C5            6 O6    
    1 C1       0.000000
    2 C2       2.513063        0.000000
    3 C3       4.634535        2.762783        0.000000
    4 C4       6.959087        4.682355        2.519974        0.000000
    5 C5       9.240088        7.222494        4.609191        2.784646        0.000000
    6 O6      11.307179        9.131781        6.686230        4.461387        2.249494        0.000000
    7 H7       2.051533        3.931209        5.019175        7.535044        9.356283       11.557777
    8 C8       2.835588        4.749162        7.305740        9.430494       11.898582       13.871099
    9 H9       5.046739        4.108835        2.049811        3.939912        4.959460        7.206732
   10 H10      7.714145        5.217145        4.005298        2.044916        4.138063        4.989194
   11 H11      9.305317        7.719494        4.956969        4.126203        2.087237        3.766473
   12 H12      3.957826        2.046959        4.119381        5.137268        7.908638        9.486028
   13 H13      4.063669        5.032060        7.790745        9.530427       12.199022       13.976672
   14 H14      4.046151        6.085690        8.461943       10.645748       13.012539       15.021521
   15 H15      4.046161        6.085709        8.461929       10.645710       13.012674       15.021394
 
               7 H7            8 C8            9 H9           10 H10          11 H11          12 H12   
    7 H7       0.000000
    8 C8       4.172268        0.000000
    9 H9       4.558298        7.882121        0.000000
   10 H10      8.729554        9.794255        5.795021        0.000000
   11 H11      8.959041       12.105800        4.405425        5.909793        0.000000
   12 H12      5.761868        5.199653        5.883040        4.830735        8.858160        0.000000
   13 H13      5.855245        2.055723        8.824236        9.455970       12.742113        4.626288
   14 H14      4.837571        2.063073        8.823864       11.094241       13.089524        6.630730
   15 H15      4.837570        2.063070        8.823837       11.094182       13.089466        6.630734
 
              13 H13          14 H14          15 H15   
   13 H13      0.000000
   14 H14      3.346583        0.000000
   15 H15      3.346583        3.321778        0.000000
 
                    ******************************************* 
                    *    InterNuclear Distances / angstrom    * 
                    ******************************************* 
 
               1 C1            2 C2            3 C3            4 C4            5 C5            6 O6    
    1 C1       0.000000
    2 C2       1.329855        0.000000
    3 C3       2.452490        1.462002        0.000000
    4 C4       3.682590        2.477795        1.333513        0.000000
    5 C5       4.889644        3.821979        2.439079        1.473571        0.000000
    6 O6       5.983501        4.832330        3.538200        2.360864        1.190381        0.000000
    7 H7       1.085625        2.080306        2.656033        3.987374        4.951132        6.116112
    8 C8       1.500528        2.513149        3.866031        4.990402        6.296458        7.340269
    9 H9       2.670619        2.174302        1.084713        2.084912        2.624433        3.813638
   10 H10      4.082150        2.760794        2.119513        1.082123        2.189768        2.640168
   11 H11      4.924162        4.084980        2.623115        2.183493        1.104518        1.993132
   12 H12      2.094391        1.083204        2.179883        2.718525        4.185071        5.019790
   13 H13      2.150401        2.662851        4.122685        5.043285        6.455444        7.396136
   14 H14      2.141131        3.220409        4.477867        5.633487        6.885939        7.949047
   15 H15      2.141136        3.220419        4.477860        5.633467        6.886011        7.948979
 
               7 H7            8 C8            9 H9           10 H10          11 H11          12 H12   
    7 H7       0.000000
    8 C8       2.207869        0.000000
    9 H9       2.412147        4.171039        0.000000
   10 H10      4.619481        5.182896        3.066593        0.000000
   11 H11      4.740920        6.406113        2.331250        3.127328        0.000000
   12 H12      3.049049        2.751538        3.113170        2.556315        4.687537        0.000000
   13 H13      3.098462        1.087842        4.669585        5.003884        6.742836        2.448126
   14 H14      2.559932        1.091731        4.669388        5.870819        6.926678        3.508831
   15 H15      2.559932        1.091730        4.669373        5.870788        6.926647        3.508834
 
              13 H13          14 H14          15 H15   
   13 H13      0.000000
   14 H14      1.770936        0.000000
   15 H15      1.770936        1.757809        0.000000
 
                    ************************************** 
                    *    Valence Bond Angles / degree    * 
                    ************************************** 
                          Atom centers                 Phi
                      2 C2       1 C1       7 H7       118.56
                      2 C2       1 C1       8 C8       125.12
                      7 H7       1 C1       8 C8       116.32
                      1 C1       2 C2       3 C3       122.84
                      1 C1       2 C2      12 H12      120.09
                      3 C3       2 C2      12 H12      117.06
                      2 C2       3 C3       4 C4       124.77
                      2 C2       3 C3       9 H9       116.47
                      4 C4       3 C3       9 H9       118.76
                      3 C3       4 C4       5 C5       120.58
                      3 C3       4 C4      10 H10      122.32
                      5 C5       4 C4      10 H10      117.10
                      4 C4       5 C5       6 O6       124.46
                      4 C4       5 C5      11 H11      115.01
                      6 O6       5 C5      11 H11      120.52
                      1 C1       8 C8      13 H13      111.36
                      1 C1       8 C8      14 H14      110.38
                      1 C1       8 C8      15 H15      110.38
                     13 H13      8 C8      14 H14      108.68
                     13 H13      8 C8      15 H15      108.68
                     14 H14      8 C8      15 H15      107.23
 
           ***************************************************************
           *              Valence Dihedral Angles / degree               *
           ***************************************************************
                    Atom centers                       Phi1     Phi2     Theta 
           7 H7       1 C1       2 C2      12 H12       118.56   120.09   180.00
           8 C8       1 C1       2 C2      12 H12       125.12   120.09    -0.00
           2 C2       1 C1       8 C8      13 H13       125.12   111.36     0.00
           2 C2       1 C1       8 C8      14 H14       125.12   110.38  -120.82
           2 C2       1 C1       8 C8      15 H15       125.12   110.38   120.82
           7 H7       1 C1       8 C8      13 H13       116.32   111.36  -180.00
           7 H7       1 C1       8 C8      14 H14       116.32   110.38    59.18
           7 H7       1 C1       8 C8      15 H15       116.32   110.38   -59.18
           3 C3       2 C2       1 C1       7 H7        122.84   118.56     0.00
           3 C3       2 C2       1 C1       8 C8        122.84   125.12  -180.00
           1 C1       2 C2       3 C3       4 C4        122.84   124.77   180.00
           1 C1       2 C2       3 C3       9 H9        122.84   116.47    -0.00
           4 C4       3 C3       2 C2      12 H12       124.77   117.06     0.00
           9 H9       3 C3       2 C2      12 H12       116.47   117.06  -180.00
           2 C2       3 C3       4 C4       5 C5        124.77   120.58   179.98
           2 C2       3 C3       4 C4      10 H10       124.77   122.32    -0.00
           9 H9       3 C3       4 C4      10 H10       118.76   122.32   180.00
           5 C5       4 C4       3 C3       9 H9        120.58   118.76    -0.02
           3 C3       4 C4       5 C5       6 O6        120.58   124.46   179.97
           3 C3       4 C4       5 C5      11 H11       120.58   115.01     0.04
          10 H10      4 C4       5 C5      11 H11       117.10   115.01  -179.98
           6 O6       5 C5       4 C4      10 H10       124.46   117.10    -0.05
--
 
 
            Nuclear Potential Energy            252.87699523 au
 
--- Stop Module: gateway at Mon Nov  3 17:07:54 2025 /rc=_RC_ALL_IS_WELL_ ---
*** files: seperate_mscapst2_1.RICDLib xmldump
    saved to directory /dodrio/scratch/projects/starting_2025_097/speedup_mscaspt2/root1/seperate_mscapst2_1
--- Module gateway spent 1 second ---

--- Start Module: seward at Mon Nov  3 17:07:54 2025 ---
 
()()()()()()()()()()()()()()()()()()()()()()()()()()()()()()()()()()()()()()()()()()()()()()()()()()

                                              &SEWARD

                                   only a single process is used
                       available to each process: 4.0 GB of memory, 1 thread
                                            pid: 2576491
()()()()()()()()()()()()()()()()()()()()()()()()()()()()()()()()()()()()()()()()()()()()()()()()()()
 
 RdCtl: keyword DOAN is obsolete and is ignored!
               SEWARD will generate:
                  Multipole Moment integrals up to order  2
                  Kinetic Energy integrals
                  Nuclear Attraction integrals (point charge)
                  One-Electron Hamiltonian integrals
                  Velocity integrals
                  Orbital angular momentum around (  1.1545   0.9268  -0.5351 )
                  Velocity quadrupole around (  1.1545   0.9268  -0.5351 )
                  RI decomposed two-electron repulsion integrals stored Cholesky style
                   - acCD auxiliary basis
                   - CD Threshold:   1.00E-04
 
 Title:
                           Sorbaledehyde: 3-roots MS-CASPT2/SA-CASSCF                   
 
 
                   Integrals are discarded if absolute value <: 1.00E-14
                   Integral cutoff threshold is set to       <: 1.00E-16
 
            Nuclear Potential Energy            252.87699523 au
 
 
      Basis set specifications :
      Symmetry species         a  
      Basis functions          138
 
 
      Input file to MOLDEN was generated!
 
--- Stop Module: seward at Mon Nov  3 17:07:58 2025 /rc=_RC_ALL_IS_WELL_ ---
*** files: seperate_mscapst2_1.GssOrb seperate_mscapst2_1.guessorb.h5 seperate_mscapst2_1.guessorb.molden xmldump
    saved to directory /dodrio/scratch/projects/starting_2025_097/speedup_mscaspt2/root1/seperate_mscapst2_1
--- Module seward spent 4 seconds ---

*** symbolic link created: INPORB -> seperate_mscapst2_1.GssOrb
--- Start Module: rasscf at Mon Nov  3 17:07:59 2025 ---
 
()()()()()()()()()()()()()()()()()()()()()()()()()()()()()()()()()()()()()()()()()()()()()()()()()()

                                              &RASSCF

                                   only a single process is used
                       available to each process: 4.0 GB of memory, 1 thread
                                            pid: 2576507
()()()()()()()()()()()()()()()()()()()()()()()()()()()()()()()()()()()()()()()()()()()()()()()()()()
 
 
      Header of the ONEINT file:
      --------------------------
      
      Integrals generated by Gateway/Seward, Mon Nov  3 17:07:55 2025
 
 
      OrdInt status: non-squared
 
 
      Cartesian coordinates in angstrom:
      -----------------------------------------------------
      No.  Label        X            Y            Z        
      -----------------------------------------------------
       1   C1        -0.95929900  -1.11663900   0.64469500
       2   C2        -0.56077800  -0.01786100   0.01035800
       3   C3         0.84871400   0.31840900  -0.18381800
       4   C4         1.29098600   1.40788800  -0.81285500
       5   C5         2.73643600   1.65618800  -0.95580200
       6   O6         3.20637900   2.60307100  -1.50313500
       7   H7        -0.20517900  -1.79297200   1.03515300
       8   C8        -2.38895900  -1.51129200   0.87252600
       9   H9         1.57268100  -0.38114800   0.22003200
      10   H10        0.62017700   2.14323600  -1.23743600
      11   H11        3.38912200   0.88431200  -0.51064000
      12   H12       -1.29212400   0.67412700  -0.38916200
      13   H13       -3.07418400  -0.77957400   0.45008600
      14   H14       -2.59198800  -1.60443500   1.94116100
      15   H15       -2.59198400  -2.48331100   0.41883700
      -----------------------------------------------------
      Nuclear repulsion energy =  252.87699523
 
++    Wave function specifications:
      -----------------------------
 
      Number of closed shell electrons          44
      Number of electrons in active shells       8
      Max number of holes in RAS1 space          0
      Max nr of electrons in RAS3 space          0
      Number of inactive orbitals               22
      Number of active orbitals                  7
      Number of secondary orbitals             109
      Spin quantum number                      0.0
      State symmetry                             1
--
 
++    Orbital specifications:
      -----------------------
 
      Symmetry species                           1
                                                 a
      Frozen orbitals                            0
      Inactive orbitals                         22
      Active orbitals                            7
      RAS1 orbitals                              0
      RAS2 orbitals                              7
      RAS3 orbitals                              0
      Secondary orbitals                       109
      Deleted orbitals                           0
      Number of basis functions                138
--
 
++    CI expansion specifications:
      ----------------------------
 
      Number of CSFs                           490
      Number of determinants                   630
      Number of root(s) required                 3
      Root chosen for geometry opt.              3
      CI roots used                              1     2     3
      weights                                0.333 0.333 0.333
      highest root included in the CI            3
      max. size of the explicit Hamiltonian    200
--
 
++    Optimization specifications:
      ----------------------------
 
      RASSCF algorithm: LK RI/DF
      Maximum number of macro iterations       200
      Maximum number of SX iterations          100
      Threshold for RASSCF energy            1.000E-08
      Threshold for max MO rotation          1.000E-01
      Threshold for max BLB element          1.000E-04
      Level shift parameter                  5.000E-01
      Make Quasi-Newton update
--
 
      The MO-coefficients are taken from the file:
      /dodrio/scratch/projects/starting_2025_097/speedup_mscaspt2/root1/sorbaldehyde-04.RasOrb
      Title: RASSCF average (pseudo-natural) orbitals                                      
 
      Total molecular charge    0.00
 
      ************************************************************************************************************************
      *                                                                                                                      *
      *                                            Wave function control section                                             *
      *                                                                                                                      *
      ************************************************************************************************************************
 
 
                                         CASCI only, no orbital optimization will be done.
                                         -------------------------------------------------
 
      Iter CI   SX   CI       RASSCF       Energy    max ROT     max BLB   max BLB  Level Ln srch  Step   QN   Walltime
          iter iter root      energy       change     param      element    value   shift minimum  type update hh:mm:ss
 Nr of preliminary CI iterations:  11
        1   1    0    0  -306.69696043    0.00E+00   0.00E+00   22  53 1 -4.28E-06   0.00   0.00    SX    NO    0:00:02
 
      ************************************************************************************************************************
                                                      Wave function printout:
                       occupation of active orbitals, and spin coupling of open shells (u,d: Spin up or down)
      ************************************************************************************************************************
 
      Note: transformation to natural orbitals
      has been made, which may change the order of the CSFs.
 
      printout of CI-coefficients larger than  0.05 for root  1
      energy=    -306.828676
      conf/sym  1111111     Coeff  Weight
             1  2222000   0.91269 0.83301
             2  222ud00   0.12795 0.01637
             3  2220200  -0.12741 0.01623
             4  222u0d0  -0.12578 0.01582
             5  2220ud0  -0.09032 0.00816
             6  2220020  -0.07607 0.00579
            32  2u2d200  -0.06319 0.00399
            33  2u220d0  -0.07767 0.00603
            34  2u2dud0   0.09637 0.00929
            35  2u2udd0  -0.05374 0.00289
            37  2u2d020   0.08282 0.00686
            40  2u2du0d   0.07953 0.00633
            60  u22du0d  -0.08790 0.00773
           131  2022200  -0.06865 0.00471
           134  2022020  -0.05700 0.00325
           157  ud22u0d  -0.07935 0.00630
           171  0222200  -0.07609 0.00579
           172  0222ud0   0.06409 0.00411
 
      printout of CI-coefficients larger than  0.05 for root  2
      energy=    -306.676316
      conf/sym  1111111     Coeff  Weight
            11  22u2d00   0.83716 0.70084
            12  22ud200  -0.24770 0.06136
            13  22u20d0  -0.25291 0.06396
            15  22uudd0  -0.06071 0.00369
            16  22u02d0   0.08753 0.00766
            18  22u0d20   0.08205 0.00673
            19  22u200d   0.15028 0.02258
            21  22uud0d   0.08833 0.00780
            23  22ud0ud  -0.05350 0.00286
            91  2ud2200  -0.16142 0.02606
            92  2ud2ud0   0.10322 0.01065
            93  2udu2d0  -0.06511 0.00424
           111  u2d2200  -0.05105 0.00261
           112  u2d2ud0   0.07382 0.00545
           117  u2d2u0d  -0.10062 0.01013
           119  u2d20ud   0.05733 0.00329
           191  2uu2dd0  -0.05132 0.00263
           193  2uudd20   0.06848 0.00469
           194  2uu2d0d  -0.05036 0.00254
           195  2uud20d   0.05718 0.00327
           277  20u2d20  -0.06263 0.00392
 
      printout of CI-coefficients larger than  0.05 for root  3
      energy=    -306.585890
      conf/sym  1111111     Coeff  Weight
             2  222ud00  -0.21273 0.04526
             3  2220200  -0.49133 0.24140
             4  222u0d0   0.34955 0.12219
             5  2220ud0  -0.25433 0.06468
             7  222u00d   0.16662 0.02776
             9  22200ud   0.13703 0.01878
            10  2220002   0.08506 0.00723
            31  2u22d00   0.44660 0.19945
            33  2u220d0   0.21177 0.04485
            35  2u2udd0  -0.13547 0.01835
            37  2u2d020  -0.05933 0.00352
            39  2u2200d  -0.08227 0.00677
            40  2u2du0d  -0.07159 0.00513
            41  2u2ud0d  -0.09078 0.00824
            52  u22d200  -0.10758 0.01157
            54  u22dud0   0.05106 0.00261
            55  u22udd0  -0.06298 0.00397
            56  u2202d0   0.05549 0.00308
            57  u22d020   0.08355 0.00698
            60  u22du0d  -0.05631 0.00317
            61  u22ud0d   0.05731 0.00328
            63  u22d0ud  -0.08516 0.00725
            65  u22u0dd   0.06221 0.00387
           131  2022200   0.17863 0.03191
           132  2022ud0   0.15975 0.02552
           139  20220ud  -0.08759 0.00767
           152  ud22ud0  -0.05299 0.00281
           153  ud2u2d0  -0.07358 0.00541
           157  ud22u0d   0.05451 0.00297
           158  ud2u20d   0.05115 0.00262
           181  02202ud  -0.05033 0.00253
 
      Natural orbitals and occupation numbers for root  1
      sym 1:   1.941722   1.922938   1.999408   1.876532   0.130952   0.075128   0.053318
 
      Natural orbitals and occupation numbers for root  2
      sym 1:   1.998503   1.935544   0.999988   1.885657   1.000404   0.116025   0.063879
 
      Natural orbitals and occupation numbers for root  3
      sym 1:   1.888478   1.634281   1.999580   1.061658   0.984415   0.331961   0.099627
 
      ************************************************************************************************************************
      *                                                                                                                      *
      *                                                    Final results                                                     *
      *                                                                                                                      *
      ************************************************************************************************************************
 
 
++    Final optimization conditions:
      ------------------------------
 
      Average CI energy                            -306.69696042
      RASSCF energy for state  3                   -306.58588976
      Super-CI energy                                 0.00000000
      RASSCF energy change                            0.00000000
      Max change in MO coefficients               0.000E+00
      Max non-diagonal density matrix element     0.000E+00
      Maximum BLB matrix element                 -4.276E-06
      (orbital pair  22,  53 in symmetry   1)
      Norm of electronic gradient            9.212E-02
--
 
 
      Final state energy(ies):
      ------------------------
 
::    RASSCF root number  1 Total energy:   -306.82867559
::    RASSCF root number  2 Total energy:   -306.67631592
::    RASSCF root number  3 Total energy:   -306.58588976
 
++    Molecular orbitals:
      -------------------
 
      Pseudonatural active orbitals and approximate occupation numbers
 
 
      MOLECULAR ORBITALS FOR SYMMETRY SPECIES 1: a  
 
      INDEX  ENERGY  OCCUPATION COEFFICIENTS ...
          1    0.0000    2.0000                                                                                                           
                71 O6     1s     ( 1.0002)
          2    0.0000    2.0000                                                                                                           
                57 C5     1s     ( 0.9995)
          3    0.0000    2.0000                                                                                                           
                29 C3     1s     ( 0.1170)  43 C4     1s     ( 0.9925)
          4    0.0000    2.0000                                                                                                           
                15 C2     1s     ( 0.9902)  29 C3     1s     ( 0.1101)
          5    0.0000    2.0000                                                                                                           
                15 C2     1s     (-0.1116)  29 C3     1s     ( 0.9864)  43 C4     1s     (-0.1151)
          6    0.0000    2.0000                                                                                                           
                 1 C1     1s     (-0.2342)  90 C8     1s     (-0.9717)
          7    0.0000    2.0000                                                                                                           
                 1 C1     1s     ( 0.9687)  90 C8     1s     (-0.2349)
          8    0.0000    2.0000                                                                                                           
                58 C5     2s     ( 0.2458)  62 C5     2py    ( 0.1190)  72 O6     2s     ( 0.7118)  76 O6     2py    (-0.1175)
      
          9    0.0000    2.0000                                                                                                           
                 2 C1     2s     ( 0.2692)  16 C2     2s     ( 0.3108)  30 C3     2s     ( 0.3057)  44 C4     2s     ( 0.2472)
      
         10    0.0000    2.0000                                                                                                           
                 2 C1     2s     ( 0.3353)  16 C2     2s     ( 0.1549)  18 C2     2px    (-0.1140)  30 C3     2s     (-0.2117)
                44 C4     2s     (-0.3233)  58 C5     2s     (-0.1313)  72 O6     2s     ( 0.1134)  91 C8     2s     ( 0.2091)
               129 H14    1s     ( 0.1045) 134 H15    1s     ( 0.1045)
         11    0.0000    2.0000                                                                                                           
                 4 C1     2px    (-0.1701)  16 C2     2s     (-0.3332)  30 C3     2s     (-0.1087)  32 C3     2px    ( 0.1002)
                44 C4     2s     ( 0.2181)  58 C5     2s     ( 0.1714)  72 O6     2s     (-0.1421)  91 C8     2s     ( 0.3435)
               124 H13    1s     ( 0.1587) 129 H14    1s     ( 0.1451) 134 H15    1s     ( 0.1451)
         12    0.0000    2.0000                                                                                                           
                 2 C1     2s     (-0.2236)  18 C2     2px    ( 0.1063)  20 C2     2py    ( 0.1135)  30 C3     2s     ( 0.3552)
                46 C4     2px    (-0.1738)  48 C4     2py    (-0.1024)  58 C5     2s     (-0.3820)  72 O6     2s     ( 0.3428)
                76 O6     2py    ( 0.1500)  91 C8     2s     ( 0.1863) 114 H11    1s     (-0.1406)
         13    0.0000    2.0000                                                                                                           
                 2 C1     2s     ( 0.1218)  18 C2     2px    (-0.1220)  30 C3     2s     (-0.1923)  34 C3     2py    ( 0.1425)
                44 C4     2s     ( 0.2865)  46 C4     2px    (-0.1140)  48 C4     2py    ( 0.1410)  58 C5     2s     (-0.2085)
                60 C5     2px    (-0.2126)  72 O6     2s     ( 0.2088)  76 O6     2py    ( 0.1855)  78 O6     2pz    (-0.1071)
               104 H9     1s     (-0.2081) 109 H10    1s     ( 0.2364) 114 H11    1s     (-0.2293)
         14    0.0000    2.0000                                                                                                           
                 2 C1     2s     ( 0.2931)   6 C1     2py    (-0.1373)  16 C2     2s     (-0.2738)  20 C2     2py    (-0.1691)
                32 C3     2px    ( 0.1743)  58 C5     2s     (-0.1517)  72 O6     2s     ( 0.1836)  76 O6     2py    ( 0.1356)
                85 H7     1s     ( 0.2481)  93 C8     2px    ( 0.1485) 104 H9     1s     ( 0.1299) 119 H12    1s     (-0.2559)
               124 H13    1s     (-0.1195)
         15    0.0000    2.0000                                                                                                           
                 6 C1     2py    ( 0.1234)  18 C2     2px    (-0.1815)  30 C3     2s     (-0.1028)  32 C3     2px    ( 0.1498)
                46 C4     2px    ( 0.1145)  48 C4     2py    (-0.1426)  62 C5     2py    (-0.2940)  64 C5     2pz    ( 0.1699)
                72 O6     2s     ( 0.3677)  74 O6     2px    ( 0.2415)  76 O6     2py    ( 0.3997)  78 O6     2pz    (-0.2310)
                85 H7     1s     (-0.1082) 109 H10    1s     (-0.1143) 114 H11    1s     ( 0.1769)
         16    0.0000    2.0000                                                                                                           
                 2 C1     2s     (-0.1456)   6 C1     2py    ( 0.1447)  20 C2     2py    (-0.1490)  34 C3     2py    (-0.2702)
                36 C3     2pz    ( 0.1560)  46 C4     2px    ( 0.2619)  48 C4     2py    ( 0.1293)  60 C5     2px    (-0.3437)
                76 O6     2py    ( 0.1270)  85 H7     1s     (-0.1110)  93 C8     2px    (-0.1808) 104 H9     1s     ( 0.1875)
               114 H11    1s     (-0.1936)
         17    0.0000    2.0000                                                                                                           
                 2 C1     2s     (-0.1198)   4 C1     2px    ( 0.1785)   6 C1     2py    (-0.1216)  16 C2     2s     ( 0.1358)
                18 C2     2px    ( 0.2234)  32 C3     2px    (-0.2410)  48 C4     2py    ( 0.1841)  50 C4     2pz    (-0.1063)
                62 C5     2py    (-0.1974)  64 C5     2pz    ( 0.1140)  72 O6     2s     ( 0.1548)  74 O6     2px    ( 0.1543)
                76 O6     2py    ( 0.2667)  78 O6     2pz    (-0.1542)  85 H7     1s     ( 0.1476)  95 C8     2py    (-0.2158)
                97 C8     2pz    ( 0.1246) 109 H10    1s     ( 0.1168) 114 H11    1s     ( 0.1977) 129 H14    1s     ( 0.1152)
               134 H15    1s     ( 0.1152)
         18    0.0000    2.0000                                                                                                           
                 6 C1     2py    ( 0.1985)   8 C1     2pz    (-0.1146)  18 C2     2px    ( 0.1119)  20 C2     2py    (-0.2657)
                22 C2     2pz    ( 0.1534)  46 C4     2px    (-0.2549)  60 C5     2px    ( 0.2344)  74 O6     2px    ( 0.1016)
                93 C8     2px    (-0.2300)  95 C8     2py    ( 0.1772)  97 C8     2pz    (-0.1023) 109 H10    1s     ( 0.2386)
               114 H11    1s     ( 0.1809) 119 H12    1s     (-0.2663) 124 H13    1s     ( 0.2012)
         19    0.0000    2.0000                                                                                                           
                95 C8     2py    ( 0.2893)  97 C8     2pz    ( 0.5011) 129 H14    1s     ( 0.3713) 134 H15    1s     (-0.3713)
      
         20    0.0000    2.0000                                                                                                           
                 4 C1     2px    (-0.2466)   6 C1     2py    (-0.1477)  20 C2     2py    ( 0.1604)  34 C3     2py    (-0.2480)
                36 C3     2pz    ( 0.1432)  46 C4     2px    (-0.1028)  48 C4     2py    ( 0.2667)  50 C4     2pz    (-0.1540)
                93 C8     2px    ( 0.2526)  95 C8     2py    ( 0.2062)  97 C8     2pz    (-0.1190) 104 H9     1s     ( 0.2777)
               109 H10    1s     ( 0.2439) 114 H11    1s     ( 0.1153) 119 H12    1s     ( 0.1049) 129 H14    1s     (-0.1463)
               134 H15    1s     (-0.1463)
         21    0.0000    2.0000                                                                                                           
                 6 C1     2py    ( 0.2085)   8 C1     2pz    (-0.1204)  18 C2     2px    (-0.1911)  20 C2     2py    (-0.1319)
                32 C3     2px    ( 0.2138)  46 C4     2px    (-0.1363)  60 C5     2px    ( 0.1267)  85 H7     1s     (-0.2062)
                93 C8     2px    ( 0.1228)  95 C8     2py    (-0.3473)  97 C8     2pz    ( 0.2005) 104 H9     1s     ( 0.1825)
               109 H10    1s     ( 0.1760) 124 H13    1s     (-0.3468) 129 H14    1s     ( 0.1796) 134 H15    1s     ( 0.1796)
      
         22    0.0000    2.0000                                                                                                           
                 4 C1     2px    ( 0.3362)  18 C2     2px    (-0.3067)  30 C3     2s     (-0.1058)  32 C3     2px    ( 0.2805)
                85 H7     1s     ( 0.3257)  93 C8     2px    (-0.3312) 104 H9     1s     ( 0.2142) 109 H10    1s     ( 0.1116)
               119 H12    1s     ( 0.3079) 124 H13    1s     ( 0.1692)
         23    0.0000    1.9245                                                                                                           
                36 C3     2pz    ( 0.1667)  48 C4     2py    ( 0.1455)  50 C4     2pz    ( 0.2518)  62 C5     2py    ( 0.2193)
                64 C5     2pz    ( 0.3799)  76 O6     2py    ( 0.2923)  78 O6     2pz    ( 0.5059)
         24    0.0000    1.7812                                                                                                           
                 6 C1     2py    ( 0.1342)   8 C1     2pz    ( 0.2325)  20 C2     2py    ( 0.2340)  22 C2     2pz    ( 0.4053)
                34 C3     2py    ( 0.2131)  36 C3     2pz    ( 0.3693)  48 C4     2py    ( 0.1114)  50 C4     2pz    ( 0.1929)
                64 C5     2pz    (-0.1086)  76 O6     2py    (-0.1648)  78 O6     2pz    (-0.2847)
         25    0.0000    1.6663                                                                                                           
                44 C4     2s     (-0.1531)  46 C4     2px    (-0.1898)  60 C5     2px    ( 0.1567)  74 O6     2px    (-0.8843)
                76 O6     2py    ( 0.3303)  78 O6     2pz    (-0.1903) 114 H11    1s     ( 0.2127)
         26    0.0000    1.5634                                                                                                           
                 6 C1     2py    (-0.2623)   8 C1     2pz    (-0.4544)  20 C2     2py    (-0.1759)  22 C2     2pz    (-0.3046)
                34 C3     2py    ( 0.1379)  36 C3     2pz    ( 0.2387)  48 C4     2py    ( 0.2325)  50 C4     2pz    ( 0.4031)
                76 O6     2py    (-0.1871)  78 O6     2pz    (-0.3249)
         27    0.0000    0.7340                                                                                                           
                 6 C1     2py    (-0.2688)   8 C1     2pz    (-0.4656)  22 C2     2pz    ( 0.1222)  34 C3     2py    ( 0.3065)
                36 C3     2pz    ( 0.5310)  48 C4     2py    (-0.2024)  50 C4     2pz    (-0.3508)  62 C5     2py    (-0.2684)
                64 C5     2pz    (-0.4648)  76 O6     2py    ( 0.2670)  78 O6     2pz    ( 0.4622)
         28    0.0000    0.2260                                                                                                           
                 6 C1     2py    (-0.3758)   8 C1     2pz    (-0.6509)  20 C2     2py    ( 0.4310)  22 C2     2pz    ( 0.7465)
                23 C2     3pz    ( 0.1401)  34 C3     2py    (-0.1607)  36 C3     2pz    (-0.2784)  48 C4     2py    (-0.1429)
                50 C4     2pz    (-0.2473)  62 C5     2py    ( 0.2833)  64 C5     2pz    ( 0.4904)  76 O6     2py    (-0.1715)
                78 O6     2pz    (-0.2969) 129 H14    1s     ( 0.1328) 134 H15    1s     (-0.1328)
         29    0.0000    0.1045                                                                                                           
                 6 C1     2py    (-0.1206)   8 C1     2pz    (-0.2090)  20 C2     2py    ( 0.2388)  22 C2     2pz    ( 0.4137)
                34 C3     2py    (-0.3697)  36 C3     2pz    (-0.6405)  48 C4     2py    ( 0.4035)  50 C4     2pz    ( 0.6986)
                62 C5     2py    (-0.3181)  64 C5     2pz    (-0.5505)  76 O6     2py    ( 0.1739)  78 O6     2pz    ( 0.3011)
      
         30    0.0000    0.0000                                                                                                           
                 2 C1     2s     (-0.4146)   3 C1     3s     (-0.1787)   4 C1     2px    (-0.4484)   5 C1     3px    (-0.3040)
                16 C2     2s     (-0.4435)  17 C2     3s     (-0.1766)  18 C2     2px    ( 0.1497)  20 C2     2py    (-0.3320)
                21 C2     3py    (-0.2525)  22 C2     2pz    ( 0.1917)  23 C2     3pz    ( 0.1458)  30 C3     2s     (-0.2419)
                31 C3     3s     (-0.1080)  32 C3     2px    (-0.3719)  33 C3     3px    (-0.2922)  34 C3     2py    ( 0.1180)
                44 C4     2s     (-0.1874)  46 C4     2px    ( 0.1256)  48 C4     2py    (-0.2472)  49 C4     3py    (-0.2160)
                50 C4     2pz    ( 0.1427)  51 C4     3pz    ( 0.1247)  60 C5     2px    (-0.1408)  61 C5     3px    (-0.1137)
                62 C5     2py    ( 0.1156)  85 H7     1s     ( 0.3084)  86 H7     2s     ( 0.2731)  90 C8     1s     (-0.2283)
                91 C8     2s     (-1.6076)  92 C8     3s     (-0.6556)  93 C8     2px    ( 0.2583) 104 H9     1s     ( 0.2827)
               105 H9     2s     ( 0.2182) 109 H10    1s     ( 0.2704) 110 H10    2s     ( 0.2011) 114 H11    1s     ( 0.1855)
               115 H11    2s     ( 0.1357) 119 H12    1s     ( 0.2893) 120 H12    2s     ( 0.2587) 124 H13    1s     ( 0.5133)
               125 H13    2s     ( 0.3741) 129 H14    1s     ( 0.5462) 130 H14    2s     ( 0.3946) 134 H15    1s     ( 0.5462)
               135 H15    2s     ( 0.3946)
         31    0.0000    0.0000                                                                                                           
                 2 C1     2s     (-0.5638)   3 C1     3s     (-0.2222)   4 C1     2px    ( 0.1936)   5 C1     3px    ( 0.2231)
                 6 C1     2py    ( 0.4078)   7 C1     3py    ( 0.3034)   8 C1     2pz    (-0.2354)   9 C1     3pz    (-0.1752)
                18 C2     2px    ( 0.4649)  19 C2     3px    ( 0.4633)  29 C3     1s     (-0.1334)  30 C3     2s     (-0.8961)
                31 C3     3s     (-0.3653)  34 C3     2py    ( 0.5548)  35 C3     3py    ( 0.3847)  36 C3     2pz    (-0.3203)
                37 C3     3pz    (-0.2221)  44 C4     2s     (-0.1139)  46 C4     2px    ( 0.5711)  47 C4     3px    ( 0.5120)
                57 C5     1s     (-0.1565)  58 C5     2s     (-1.0534)  59 C5     3s     (-0.4444)  60 C5     2px    ( 0.1437)
                61 C5     3px    ( 0.2997)  62 C5     2py    ( 0.4289)  63 C5     3py    ( 0.2269)  64 C5     2pz    (-0.2475)
                65 C5     3pz    (-0.1308)  72 O6     2s     (-0.2463)  85 H7     1s     ( 0.3589)  86 H7     2s     ( 0.2717)
                91 C8     2s     ( 0.5667)  92 C8     3s     ( 0.2333)  93 C8     2px    ( 0.3970)  94 C8     3px    ( 0.4557)
                95 C8     2py    ( 0.1222)  96 C8     3py    ( 0.1002) 104 H9     1s     ( 0.6059) 105 H9     2s     ( 0.4744)
               109 H10    1s     ( 0.2501) 110 H10    2s     ( 0.2279) 114 H11    1s     ( 0.4529) 115 H11    2s     ( 0.4077)
               119 H12    1s     ( 0.1149)
         32    0.0000    0.0000                                                                                                           
                 2 C1     2s     ( 0.5943)   3 C1     3s     ( 0.2354)   4 C1     2px    ( 0.3667)   5 C1     3px    ( 0.2202)
                 6 C1     2py    ( 0.2474)   7 C1     3py    ( 0.3115)   8 C1     2pz    (-0.1428)   9 C1     3pz    (-0.1799)
                15 C2     1s     (-0.1475)  16 C2     2s     (-0.9672)  17 C2     3s     (-0.3830)  18 C2     2px    ( 0.3784)
                19 C2     3px    ( 0.1976)  21 C2     3py    ( 0.1951)  23 C2     3pz    (-0.1126)  30 C3     2s     ( 0.2660)
                32 C3     2px    ( 0.1465)  34 C3     2py    ( 0.2524)  35 C3     3py    ( 0.2978)  36 C3     2pz    (-0.1457)
                37 C3     3pz    (-0.1720)  43 C4     1s     (-0.1872)  44 C4     2s     (-1.2557)  45 C4     3s     (-0.5017)
                46 C4     2px    ( 0.2627)  48 C4     2py    (-0.1462)  58 C5     2s     ( 0.1208)  60 C5     2px    (-0.2165)
                61 C5     3px    (-0.2555)  62 C5     2py    ( 0.1711)  63 C5     3py    ( 0.2140)  65 C5     3pz    (-0.1236)
                72 O6     2s     (-0.2171)  85 H7     1s     (-0.2387)  86 H7     2s     (-0.1733)  91 C8     2s     ( 0.1791)
                93 C8     2px    ( 0.1469)  94 C8     3px    ( 0.1090)  96 C8     3py    ( 0.1626) 104 H9     1s     (-0.1369)
               109 H10    1s     ( 0.5532) 110 H10    2s     ( 0.4488) 114 H11    1s     ( 0.1071) 119 H12    1s     ( 0.4954)
               120 H12    2s     ( 0.3831) 129 H14    1s     ( 0.1198) 134 H15    1s     ( 0.1198)
         33    0.0000    0.0000                                                                                                           
                 1 C1     1s     ( 0.1178)   2 C1     2s     ( 0.8460)   3 C1     3s     ( 0.3395)   4 C1     2px    (-0.5780)
                 5 C1     3px    (-0.5628)   6 C1     2py    (-0.1502)  16 C2     2s     ( 0.3885)  17 C2     3s     ( 0.1742)
                18 C2     2px    ( 0.2635)  19 C2     3px    ( 0.2992)  21 C2     3py    (-0.1263)  30 C3     2s     ( 0.5392)
                31 C3     3s     ( 0.2072)  32 C3     2px    ( 0.1271)  34 C3     2py    ( 0.3152)  35 C3     3py    ( 0.3505)
                36 C3     2pz    (-0.1821)  37 C3     3pz    (-0.2025)  44 C4     2s     ( 0.1266)  46 C4     2px    ( 0.6569)
                47 C4     3px    ( 0.6073)  48 C4     2py    ( 0.2858)  49 C4     3py    ( 0.2482)  50 C4     2pz    (-0.1647)
                51 C4     3pz    (-0.1431)  57 C5     1s     (-0.1116)  58 C5     2s     (-0.7547)  59 C5     3s     (-0.3258)
                60 C5     2px    ( 0.5909)  61 C5     3px    ( 0.6251)  62 C5     2py    ( 0.3184)  63 C5     3py    ( 0.1914)
                64 C5     2pz    (-0.1839)  65 C5     3pz    (-0.1105)  72 O6     2s     (-0.4381)  73 O6     3s     (-0.1468)
                85 H7     1s     ( 0.1042)  91 C8     2s     (-0.6336)  92 C8     3s     (-0.2477)  93 C8     2px    (-0.5711)
                94 C8     3px    (-0.6194)  95 C8     2py    (-0.2490)  96 C8     3py    (-0.2473)  97 C8     2pz    ( 0.1438)
                98 C8     3pz    ( 0.1428) 104 H9     1s     ( 0.1044) 109 H10    1s     ( 0.1091) 119 H12    1s     ( 0.2068)
               129 H14    1s     (-0.1902) 134 H15    1s     (-0.1902)
         34    0.0000    0.0000                                                                                                           
                 1 C1     1s     (-0.1624)   2 C1     2s     (-1.0858)   3 C1     3s     (-0.4192)   4 C1     2px    ( 0.1865)
                 5 C1     3px    ( 0.2263)   7 C1     3py    (-0.1538)  16 C2     2s     ( 0.4211)  17 C2     3s     ( 0.1591)
                18 C2     2px    (-0.3903)  19 C2     3px    (-0.2665)  20 C2     2py    (-0.2612)  21 C2     3py    (-0.2658)
                22 C2     2pz    ( 0.1508)  23 C2     3pz    ( 0.1535)  29 C3     1s     ( 0.1119)  30 C3     2s     ( 0.7786)
                31 C3     3s     ( 0.2914)  34 C3     2py    ( 0.1729)  35 C3     3py    ( 0.2372)  37 C3     3pz    (-0.1370)
                44 C4     2s     (-0.4777)  45 C4     3s     (-0.1779)  46 C4     2px    ( 0.1363)  47 C4     3px    ( 0.1106)
                58 C5     2s     ( 0.3862)  59 C5     3s     ( 0.1182)  61 C5     3px    (-0.1003)  62 C5     2py    ( 0.3684)
                63 C5     3py    ( 0.4896)  64 C5     2pz    (-0.2130)  65 C5     3pz    (-0.2829)  72 O6     2s     (-0.5355)
                73 O6     3s     (-0.1862)  91 C8     2s     ( 0.1754)  93 C8     2px    ( 0.5558)  94 C8     3px    ( 0.6788)
                95 C8     2py    (-0.2021)  96 C8     3py    (-0.3464)  97 C8     2pz    ( 0.1167)  98 C8     3pz    ( 0.1999)
               104 H9     1s     (-0.1480) 105 H9     2s     (-0.1393) 109 H10    1s     ( 0.1743) 110 H10    2s     ( 0.1269)
               119 H12    1s     (-0.1705) 120 H12    2s     (-0.1377) 124 H13    1s     ( 0.5956) 125 H13    2s     ( 0.2409)
               129 H14    1s     (-0.1245) 134 H15    1s     (-0.1245)
         35    0.0000    0.0000                                                                                                           
                 2 C1     2s     (-0.4420)   3 C1     3s     (-0.1585)   4 C1     2px    ( 0.7828)   5 C1     3px    ( 0.6047)
                 6 C1     2py    (-0.2952)   7 C1     3py    (-0.2561)   8 C1     2pz    ( 0.1694)   9 C1     3pz    ( 0.1478)
                16 C2     2s     (-0.7041)  17 C2     3s     (-0.2760)  18 C2     2px    (-0.5990)  19 C2     3px    (-0.6518)
                30 C3     2s     ( 0.6308)  31 C3     3s     ( 0.2457)  32 C3     2px    (-0.5674)  33 C3     3px    (-0.6009)
                34 C3     2py    (-0.2822)  35 C3     3py    (-0.1899)  36 C3     2pz    ( 0.1627)  37 C3     3pz    ( 0.1102)
                43 C4     1s     ( 0.1747)  44 C4     2s     ( 1.1624)  45 C4     3s     ( 0.4569)  46 C4     2px    ( 0.4363)
                47 C4     3px    ( 0.5090)  49 C4     3py    (-0.1690)  58 C5     2s     (-0.1885)  60 C5     2px    ( 0.7085)
                61 C5     3px    ( 0.7199)  62 C5     2py    ( 0.1263)  72 O6     2s     (-0.2775)  74 O6     2px    (-0.1575)
                85 H7     1s     (-0.6648)  86 H7     2s     (-0.4228)  93 C8     2px    ( 0.4446)  94 C8     3px    ( 0.4030)
                95 C8     2py    ( 0.5963)  96 C8     3py    ( 0.7909)  97 C8     2pz    (-0.3420)  98 C8     3pz    (-0.4531)
               105 H9     2s     (-0.1030) 114 H11    1s     (-0.2263) 115 H11    2s     (-0.1490) 124 H13    1s     (-0.2748)
               129 H14    1s     ( 0.5430) 130 H14    2s     ( 0.2464) 134 H15    1s     ( 0.5469) 135 H15    2s     ( 0.2480)
      
         36    0.0000    0.0000                                                                                                           
                 6 C1     2py    (-0.1593)   8 C1     2pz    (-0.2780)  21 C2     3py    ( 0.1554)  23 C2     3pz    ( 0.2695)
                37 C3     3pz    ( 0.1548)  51 C4     3pz    ( 0.1092)  63 C5     3py    ( 0.1001)  65 C5     3pz    ( 0.1739)
                95 C8     2py    ( 0.3471)  96 C8     3py    ( 0.5194)  97 C8     2pz    ( 0.6055)  98 C8     3pz    ( 0.9052)
               129 H14    1s     (-0.6830) 130 H14    2s     (-0.2703) 134 H15    1s     ( 0.6797) 135 H15    2s     ( 0.2688)
      
         37    0.0000    0.0000                                                                                                           
                 6 C1     2py    (-0.2275)   7 C1     3py    (-0.2304)   8 C1     2pz    (-0.3935)   9 C1     3pz    (-0.3988)
                20 C2     2py    ( 0.1098)  21 C2     3py    ( 0.1110)  22 C2     2pz    ( 0.1906)  23 C2     3pz    ( 0.1931)
                35 C3     3py    (-0.2099)  37 C3     3pz    (-0.3633)  48 C4     2py    ( 0.1076)  50 C4     2pz    ( 0.1877)
                63 C5     3py    (-0.3146)  64 C5     2pz    (-0.1039)  65 C5     3pz    (-0.5466)  95 C8     2py    ( 0.5311)
                96 C8     3py    ( 0.6184)  97 C8     2pz    ( 0.9177)  98 C8     3pz    ( 1.0687) 129 H14    1s     (-0.9388)
               130 H14    2s     (-0.4532) 134 H15    1s     ( 0.9399) 135 H15    2s     ( 0.4538)
         38    0.0000    0.0000                                                                                                           
                 4 C1     2px    ( 0.3047)   5 C1     3px    ( 0.1267)   6 C1     2py    ( 0.2069)   7 C1     3py    ( 0.1521)
                 8 C1     2pz    (-0.1200)  18 C2     2px    (-0.2529)  19 C2     3px    (-0.4568)  20 C2     2py    ( 0.2479)
                21 C2     3py    ( 0.4452)  22 C2     2pz    (-0.1428)  23 C2     3pz    (-0.2568)  29 C3     1s     ( 0.1288)
                30 C3     2s     ( 0.7464)  31 C3     3s     ( 0.2857)  32 C3     2px    ( 0.2370)  33 C3     3px    ( 0.1609)
                44 C4     2s     ( 0.1673)  46 C4     2px    ( 0.1572)  48 C4     2py    ( 0.5633)  49 C4     3py    ( 0.5705)
                50 C4     2pz    (-0.3250)  51 C4     3pz    (-0.3296)  58 C5     2s     (-0.5322)  59 C5     3s     (-0.1728)
                60 C5     2px    ( 0.3983)  61 C5     3px    ( 0.6048)  62 C5     2py    (-0.6734)  63 C5     3py    (-0.7962)
                64 C5     2pz    ( 0.3889)  65 C5     3pz    ( 0.4590)  72 O6     2s     ( 0.5116)  73 O6     3s     ( 0.1774)
                74 O6     2px    (-0.1626)  75 O6     3px    (-0.1507)  85 H7     1s     (-0.1806)  93 C8     2px    ( 0.8377)
                94 C8     3px    ( 0.8436)  95 C8     2py    (-0.9645)  96 C8     3py    (-0.9599)  97 C8     2pz    ( 0.5582)
                98 C8     3pz    ( 0.5558) 104 H9     1s     (-0.2572) 105 H9     2s     (-0.1683) 109 H10    1s     (-0.1041)
               114 H11    1s     (-0.4036) 115 H11    2s     (-0.1776) 119 H12    1s     (-0.1458) 124 H13    1s     ( 1.7365)
               125 H13    2s     ( 0.9128) 129 H14    1s     (-0.5443) 130 H14    2s     (-0.2982) 134 H15    1s     (-0.5422)
               135 H15    2s     (-0.2972)
         39    0.0000    0.0000                                                                                                           
                 6 C1     2py    (-0.3893)   7 C1     3py    (-0.5154)   8 C1     2pz    (-0.6751)   9 C1     3pz    (-0.8939)
                20 C2     2py    ( 0.2309)  21 C2     3py    ( 0.3091)  22 C2     2pz    ( 0.4002)  23 C2     3pz    ( 0.5362)
                34 C3     2py    (-0.1242)  35 C3     3py    (-0.1873)  36 C3     2pz    (-0.2163)  37 C3     3pz    (-0.3260)
                49 C4     3py    ( 0.1500)  51 C4     3pz    ( 0.2604)  65 C5     3pz    ( 0.1578)  95 C8     2py    ( 0.8959)
                96 C8     3py    ( 0.6018)  97 C8     2pz    ( 1.5509)  98 C8     3pz    ( 1.0419) 129 H14    1s     (-1.7584)
               130 H14    2s     (-1.0726) 134 H15    1s     ( 1.7598) 135 H15    2s     ( 1.0735)
         40    0.0000    0.0000                                                                                                           
                 2 C1     2s     (-0.2347)   5 C1     3px    (-0.3269)   6 C1     2py    ( 0.3205)   7 C1     3py    ( 0.5329)
                 8 C1     2pz    (-0.1843)   9 C1     3pz    (-0.3068)  18 C2     2px    ( 0.7245)  19 C2     3px    ( 0.7927)
                20 C2     2py    (-0.1879)  21 C2     3py    (-0.3995)  22 C2     2pz    ( 0.1081)  23 C2     3pz    ( 0.2300)
                30 C3     2s     (-0.1937)  33 C3     3px    (-0.1736)  34 C3     2py    ( 0.6364)  35 C3     3py    ( 0.7814)
                36 C3     2pz    (-0.3672)  37 C3     3pz    (-0.4509)  43 C4     1s     (-0.1138)  44 C4     2s     (-0.6249)
                45 C4     3s     (-0.2070)  46 C4     2px    ( 0.5196)  47 C4     3px    ( 0.5163)  49 C4     3py    (-0.1024)
                57 C5     1s     (-0.1037)  58 C5     2s     (-0.6726)  59 C5     3s     (-0.1856)  61 C5     3px    (-0.1427)
                62 C5     2py    (-0.2081)  63 C5     3py    (-0.2427)  64 C5     2pz    ( 0.1204)  65 C5     3pz    ( 0.1401)
                72 O6     2s     ( 0.3225)  73 O6     3s     ( 0.1141)  76 O6     2py    (-0.1016)  77 O6     3py    (-0.1187)
                85 H7     1s     (-0.1014)  86 H7     2s     (-0.1685)  90 C8     1s     (-0.1071)  91 C8     2s     (-0.6688)
                92 C8     3s     (-0.2240)  93 C8     2px    ( 0.4956)  94 C8     3px    ( 0.7247)  95 C8     2py    ( 0.6323)
                96 C8     3py    ( 0.3835)  97 C8     2pz    (-0.3667)  98 C8     3pz    (-0.2224) 109 H10    1s     ( 0.1456)
               114 H11    1s     (-0.1014) 124 H13    1s     (-0.3512) 125 H13    2s     (-0.2901) 129 H14    1s     ( 0.9544)
               130 H14    2s     ( 0.5804) 134 H15    1s     ( 0.9515) 135 H15    2s     ( 0.5786)
         41    0.0000    0.0000                                                                                                           
                 2 C1     2s     (-0.5993)   3 C1     3s     (-0.2067)   4 C1     2px    ( 0.2297)   5 C1     3px    ( 0.1980)
                 6 C1     2py    (-1.0695)   7 C1     3py    (-1.0638)   8 C1     2pz    ( 0.6174)   9 C1     3pz    ( 0.6141)
                15 C2     1s     ( 0.2263)  16 C2     2s     ( 1.4437)  17 C2     3s     ( 0.4607)  18 C2     2px    (-0.1473)
                19 C2     3px    (-0.1906)  20 C2     2py    (-0.2793)  21 C2     3py    (-0.3483)  22 C2     2pz    ( 0.1613)
                23 C2     3pz    ( 0.2010)  29 C3     1s     ( 0.1377)  30 C3     2s     ( 0.7632)  31 C3     3s     ( 0.2554)
                32 C3     2px    ( 0.5579)  33 C3     3px    ( 0.5726)  44 C4     2s     (-0.5687)  45 C4     3s     (-0.2718)
                47 C4     3px    (-0.1210)  48 C4     2py    ( 0.5123)  49 C4     3py    ( 0.6739)  50 C4     2pz    (-0.2960)
                51 C4     3pz    (-0.3893)  58 C5     2s     (-0.5997)  59 C5     3s     (-0.1972)  60 C5     2px    (-0.3173)
                61 C5     3px    (-0.3961)  62 C5     2py    (-0.3100)  63 C5     3py    (-0.3255)  64 C5     2pz    ( 0.1794)
                65 C5     3pz    ( 0.1882)  72 O6     2s     ( 0.3824)  73 O6     3s     ( 0.1298)  76 O6     2py    (-0.1478)
                85 H7     1s     (-0.6219)  86 H7     2s     (-0.3516)  91 C8     2s     (-0.2384)  94 C8     3px    (-0.1763)
                95 C8     2py    ( 0.8882)  96 C8     3py    ( 1.1582)  97 C8     2pz    (-0.5125)  98 C8     3pz    (-0.6683)
               104 H9     1s     (-0.4316) 105 H9     2s     (-0.1800) 109 H10    1s     ( 0.1182) 114 H11    1s     ( 0.3384)
               115 H11    2s     ( 0.1896) 124 H13    1s     (-0.5084) 125 H13    2s     (-0.2096) 129 H14    1s     ( 0.4440)
               130 H14    2s     ( 0.1852) 134 H15    1s     ( 0.4443) 135 H15    2s     ( 0.1854)
         42    0.0000    0.0000                                                                                                           
                 2 C1     2s     (-0.1008)   4 C1     2px    (-0.1140)   5 C1     3px    (-0.1773)   6 C1     2py    ( 0.1871)
                 7 C1     3py    ( 0.3106)   8 C1     2pz    (-0.1078)   9 C1     3pz    (-0.1791)  18 C2     2px    ( 0.3349)
                19 C2     3px    ( 0.4157)  20 C2     2py    (-0.1968)  21 C2     3py    (-0.1579)  22 C2     2pz    ( 0.1137)
                29 C3     1s     (-0.1266)  30 C3     2s     (-0.7298)  31 C3     3s     (-0.2195)  34 C3     2py    ( 0.1863)
                35 C3     3py    ( 0.2478)  36 C3     2pz    (-0.1078)  37 C3     3pz    (-0.1433)  44 C4     2s     (-0.3169)
                46 C4     2px    ( 0.2768)  47 C4     3px    ( 0.5632)  48 C4     2py    (-0.6241)  49 C4     3py    (-0.8291)
                50 C4     2pz    ( 0.3605)  51 C4     3pz    ( 0.4790)  58 C5     2s     (-0.2299)  60 C5     2px    (-0.4391)
                61 C5     3px    (-0.7139)  62 C5     2py    ( 0.5354)  63 C5     3py    ( 0.5584)  64 C5     2pz    (-0.3093)
                65 C5     3pz    (-0.3227)  72 O6     2s     (-0.1720)  74 O6     2px    ( 0.1183)  75 O6     3px    ( 0.1019)
                85 H7     1s     (-0.1911)  91 C8     2s     (-0.1639)  93 C8     2px    ( 0.5893)  94 C8     3px    ( 0.4500)
                95 C8     2py    (-1.0826)  96 C8     3py    (-0.6489)  97 C8     2pz    ( 0.6244)  98 C8     3pz    ( 0.3741)
               109 H10    1s     ( 0.2118) 114 H11    1s     ( 0.3631) 115 H11    2s     ( 0.1948) 119 H12    1s     ( 0.2424)
               120 H12    2s     ( 0.1523) 124 H13    1s     ( 1.9034) 125 H13    2s     ( 1.1158) 129 H14    1s     (-0.7551)
               130 H14    2s     (-0.4484) 134 H15    1s     (-0.7561) 135 H15    2s     (-0.4489)
         43    0.0000    0.0000                                                                                                           
                 7 C1     3py    (-0.2269)   8 C1     2pz    (-0.1696)   9 C1     3pz    (-0.3935)  21 C2     3py    (-0.2353)
                23 C2     3pz    (-0.4071)  36 C3     2pz    ( 0.1417)  48 C4     2py    (-0.1696)  49 C4     3py    (-0.2398)
                50 C4     2pz    (-0.2925)  51 C4     3pz    (-0.4140)  62 C5     2py    ( 0.2052)  63 C5     3py    ( 0.4885)
                64 C5     2pz    ( 0.3553)  65 C5     3pz    ( 0.8453)  78 O6     2pz    (-0.1103)  95 C8     2py    ( 0.2202)
                96 C8     3py    ( 0.4012)  97 C8     2pz    ( 0.3824)  98 C8     3pz    ( 0.6957) 129 H14    1s     (-0.1530)
               134 H15    1s     ( 0.1521)
         44    0.0000    0.0000                                                                                                           
                 2 C1     2s     ( 0.5852)   3 C1     3s     ( 0.1990)   4 C1     2px    ( 0.8567)   5 C1     3px    ( 0.4504)
                 6 C1     2py    (-0.7000)   7 C1     3py    (-0.5871)   8 C1     2pz    ( 0.4041)   9 C1     3pz    ( 0.3389)
                15 C2     1s     ( 0.1156)  16 C2     2s     ( 0.7274)  17 C2     3s     ( 0.2214)  18 C2     2px    ( 0.2678)
                20 C2     2py    ( 0.2520)  21 C2     3py    ( 0.1923)  22 C2     2pz    (-0.1455)  23 C2     3pz    (-0.1111)
                30 C3     2s     (-0.8155)  31 C3     3s     (-0.2320)  32 C3     2px    ( 0.4946)  33 C3     3px    ( 0.5013)
                34 C3     2py    (-0.1122)  35 C3     3py    (-0.3355)  37 C3     3pz    ( 0.1938)  44 C4     2s     ( 0.2565)
                46 C4     2px    (-0.2517)  47 C4     3px    (-0.1700)  48 C4     2py    (-0.2235)  50 C4     2pz    ( 0.1290)
                57 C5     1s     ( 0.1302)  58 C5     2s     ( 0.8018)  59 C5     3s     ( 0.1943)  60 C5     2px    ( 0.3567)
                61 C5     3px    ( 0.3578)  63 C5     3py    ( 0.1577)  72 O6     2s     (-0.3850)  73 O6     3s     (-0.1536)
                76 O6     2py    ( 0.1483)  77 O6     3py    ( 0.2481)  79 O6     3pz    (-0.1433)  85 H7     1s     (-1.8808)
                86 H7     2s     (-1.0556)  91 C8     2s     (-0.5203)  92 C8     3s     (-0.2356)  93 C8     2px    ( 0.5605)
                94 C8     3px    ( 0.4167)  95 C8     2py    ( 0.4488)  96 C8     3py    ( 0.2968)  97 C8     2pz    (-0.2590)
                98 C8     3pz    (-0.1712) 104 H9     1s     ( 0.2479) 105 H9     2s     ( 0.1040) 109 H10    1s     ( 0.3076)
               110 H10    2s     ( 0.1042) 114 H11    1s     (-0.6296) 115 H11    2s     (-0.3473) 119 H12    1s     ( 0.1256)
               124 H13    1s     ( 0.4730) 125 H13    2s     ( 0.1814) 129 H14    1s     ( 0.6065) 130 H14    2s     ( 0.3826)
               134 H15    1s     ( 0.6068) 135 H15    2s     ( 0.3827)
         45    0.0000    0.0000                                                                                                           
                 2 C1     2s     (-0.1526)   4 C1     2px    (-0.1616)   6 C1     2py    ( 0.1618)   7 C1     3py    ( 0.2878)
                 9 C1     3pz    (-0.1660)  16 C2     2s     (-0.4650)  17 C2     3s     (-0.1609)  18 C2     2px    ( 0.8565)
                19 C2     3px    ( 0.7073)  20 C2     2py    (-0.5542)  21 C2     3py    (-0.5390)  22 C2     2pz    ( 0.3199)
                23 C2     3pz    ( 0.3113)  30 C3     2s     (-0.2535)  32 C3     2px    ( 0.5874)  33 C3     3px    ( 0.3289)
                34 C3     2py    (-0.7836)  35 C3     3py    (-0.6937)  36 C3     2pz    ( 0.4523)  37 C3     3pz    ( 0.4005)
                44 C4     2s     ( 0.5105)  45 C4     3s     ( 0.1251)  46 C4     2px    ( 0.3085)  47 C4     3px    ( 0.1491)
                48 C4     2py    (-0.6268)  49 C4     3py    (-0.4933)  50 C4     2pz    ( 0.3620)  51 C4     3pz    ( 0.2848)
                58 C5     2s     (-0.4126)  60 C5     2px    ( 0.2620)  62 C5     2py    ( 0.1625)  63 C5     3py    ( 0.1645)
                74 O6     2px    (-0.1596)  85 H7     1s     (-0.1371)  91 C8     2s     ( 0.3204)  93 C8     2px    (-0.1035)
                94 C8     3px    (-0.3455)  95 C8     2py    (-0.2499)  96 C8     3py    (-0.4257)  97 C8     2pz    ( 0.1442)
                98 C8     3pz    ( 0.2456) 104 H9     1s     (-1.8604) 105 H9     2s     (-0.8954) 109 H10    1s     ( 1.0430)
               110 H10    2s     ( 0.5325) 119 H12    1s     ( 1.6960) 120 H12    2s     ( 0.8415) 129 H14    1s     (-0.2910)
               130 H14    2s     (-0.1094) 134 H15    1s     (-0.2910) 135 H15    2s     (-0.1093)
         46    0.0000    0.0000                                                                                                           
                 2 C1     2s     ( 0.1268)   4 C1     2px    ( 0.1029)   5 C1     3px    (-0.1458)   6 C1     2py    ( 0.4156)
                 7 C1     3py    ( 0.4228)   8 C1     2pz    (-0.2406)   9 C1     3pz    (-0.2464)  16 C2     2s     (-0.2666)
                18 C2     2px    ( 0.1629)  21 C2     3py    ( 0.1917)  23 C2     3pz    (-0.1085)  29 C3     1s     ( 0.1079)
                30 C3     2s     ( 0.5708)  31 C3     3s     ( 0.1681)  32 C3     2px    ( 0.6763)  33 C3     3px    ( 0.9223)
                34 C3     2py    (-0.1769)  35 C3     3py    (-0.3199)  37 C3     3pz    ( 0.1803)  44 C4     2s     ( 0.2930)
                46 C4     2px    (-0.9281)  47 C4     3px    (-0.6849)  48 C4     2py    ( 1.1021)  49 C4     3py    ( 1.0079)
                50 C4     2pz    (-0.6330)  51 C4     3pz    (-0.5761)  58 C5     2s     (-0.3648)  59 C5     3s     (-0.1009)
                60 C5     2px    (-0.8267)  61 C5     3px    (-0.9688)  62 C5     2py    ( 0.2779)  63 C5     3py    ( 0.1857)
                64 C5     2pz    (-0.1623)  65 C5     3pz    (-0.1096)  74 O6     2px    ( 0.2739)  85 H7     1s     ( 0.1179)
                93 C8     2px    ( 0.3318)  94 C8     3px    ( 0.2488)  95 C8     2py    (-0.1084)  96 C8     3py    (-0.3246)
                98 C8     3pz    ( 0.1866) 104 H9     1s     (-0.1951) 105 H9     2s     (-0.1025) 109 H10    1s     (-2.2067)
               110 H10    2s     (-1.1985) 114 H11    1s     ( 1.3558) 115 H11    2s     ( 0.6749) 119 H12    1s     ( 0.5437)
               120 H12    2s     ( 0.2331) 124 H13    1s     ( 0.1123) 129 H14    1s     ( 0.1626) 134 H15    1s     ( 0.1568)
      
         47    0.0000    0.0000                                                                                                           
                 7 C1     3py    (-0.3045)   8 C1     2pz    (-0.1477)   9 C1     3pz    (-0.5235)  20 C2     2py    ( 0.2590)
                21 C2     3py    ( 0.3306)  22 C2     2pz    ( 0.4486)  23 C2     3pz    ( 0.5736)  34 C3     2py    (-0.4283)
                35 C3     3py    (-0.5843)  36 C3     2pz    (-0.7407)  37 C3     3pz    (-1.0118)  48 C4     2py    ( 0.4756)
                49 C4     3py    ( 0.7900)  50 C4     2pz    ( 0.8347)  51 C4     3pz    ( 1.3783)  62 C5     2py    (-0.2861)
                63 C5     3py    (-0.3695)  64 C5     2pz    (-0.4960)  65 C5     3pz    (-0.6405)  79 O6     3pz    ( 0.1690)
                95 C8     2py    (-0.3163)  96 C8     3py    (-0.1304)  97 C8     2pz    (-0.5486)  98 C8     3pz    (-0.2281)
               129 H14    1s     ( 0.9123) 130 H14    2s     ( 0.5606) 134 H15    1s     (-0.9137) 135 H15    2s     (-0.5613)
      
         48    0.0000    0.0000                                                                                                           
                 6 C1     2py    (-0.1505)   7 C1     3py    (-0.4293)   9 C1     3pz    ( 0.2473)  16 C2     2s     ( 0.3432)
                18 C2     2px    ( 1.1027)  19 C2     3px    ( 1.0238)  20 C2     2py    (-0.1921)  22 C2     2pz    ( 0.1116)
                32 C3     2px    ( 0.6068)  33 C3     3px    ( 0.7198)  34 C3     2py    ( 0.7627)  35 C3     3py    ( 0.9147)
                36 C3     2pz    (-0.4414)  37 C3     3pz    (-0.5294)  44 C4     2s     (-0.3737)  46 C4     2px    ( 0.4845)
                47 C4     3px    ( 0.7571)  48 C4     2py    ( 0.6332)  49 C4     3py    ( 0.5669)  50 C4     2pz    (-0.3643)
                51 C4     3pz    (-0.3257)  59 C5     3s     ( 0.1161)  60 C5     2px    ( 1.0062)  61 C5     3px    ( 0.8583)
                62 C5     2py    (-0.8749)  63 C5     3py    (-0.6622)  64 C5     2pz    ( 0.5041)  65 C5     3pz    ( 0.3814)
                72 O6     2s     ( 0.2122)  73 O6     3s     ( 0.1093)  74 O6     2px    (-0.2224)  75 O6     3px    (-0.1853)
                77 O6     3py    (-0.1982)  79 O6     3pz    ( 0.1147)  85 H7     1s     ( 0.3400)  86 H7     2s     ( 0.2082)
                94 C8     3px    (-0.1150)  95 C8     2py    ( 0.7741)  96 C8     3py    ( 0.6556)  97 C8     2pz    (-0.4478)
                98 C8     3pz    (-0.3790) 109 H10    1s     (-0.2220) 110 H10    2s     (-0.1476) 114 H11    1s     (-2.1750)
               115 H11    2s     (-1.1622) 119 H12    1s     ( 1.3640) 120 H12    2s     ( 0.7340) 124 H13    1s     (-0.5007)
               125 H13    2s     (-0.2276) 129 H14    1s     ( 0.5330) 130 H14    2s     ( 0.2757) 134 H15    1s     ( 0.5310)
               135 H15    2s     ( 0.2745)
         49    0.0000    0.0000                                                                                                           
                 2 C1     2s     ( 0.1644)   4 C1     2px    ( 0.5851)   5 C1     3px    ( 0.6509)   6 C1     2py    (-1.1694)
                 7 C1     3py    (-1.1910)   8 C1     2pz    ( 0.6751)   9 C1     3pz    ( 0.6876)  18 C2     2px    ( 0.5772)
                19 C2     3px    ( 0.7997)  20 C2     2py    (-0.9663)  21 C2     3py    (-0.9219)  22 C2     2pz    ( 0.5578)
                23 C2     3pz    ( 0.5321)  30 C3     2s     (-0.2274)  32 C3     2px    (-0.3567)  33 C3     3px    (-0.6629)
                34 C3     2py    ( 0.8961)  35 C3     3py    ( 0.9389)  36 C3     2pz    (-0.5173)  37 C3     3pz    (-0.5419)
                44 C4     2s     ( 0.1417)  46 C4     2px    (-0.5473)  47 C4     3px    (-0.6708)  48 C4     2py    ( 0.8194)
                49 C4     3py    ( 0.7787)  50 C4     2pz    (-0.4732)  51 C4     3pz    (-0.4498)  58 C5     2s     (-0.1989)
                60 C5     2px    (-0.1316)  62 C5     2py    (-0.1870)  63 C5     3py    (-0.2292)  64 C5     2pz    ( 0.1081)
                65 C5     3pz    ( 0.1325)  72 O6     2s     ( 0.2417)  73 O6     3s     ( 0.1136)  77 O6     3py    (-0.2355)
                79 O6     3pz    ( 0.1360)  85 H7     1s     (-1.8492)  86 H7     2s     (-0.8709)  93 C8     2px    (-0.1665)
                94 C8     3px    (-0.2109)  95 C8     2py    ( 0.6126)  96 C8     3py    ( 0.6751)  97 C8     2pz    (-0.3535)
                98 C8     3pz    (-0.3897) 104 H9     1s     ( 1.0640) 105 H9     2s     ( 0.5228) 109 H10    1s     (-1.7069)
               110 H10    2s     (-0.8176) 114 H11    1s     ( 0.4801) 115 H11    2s     ( 0.2305) 119 H12    1s     ( 1.3273)
               120 H12    2s     ( 0.6821) 129 H14    1s     ( 0.2213) 130 H14    2s     ( 0.1711) 134 H15    1s     ( 0.2215)
               135 H15    2s     ( 0.1712)
         50    0.0000    0.0000                                                                                                           
                 6 C1     2py    ( 0.9730)   7 C1     3py    ( 1.1909)   8 C1     2pz    (-0.5618)   9 C1     3pz    (-0.6878)
                15 C2     1s     (-0.1307)  16 C2     2s     (-0.6530)  17 C2     3s     (-0.1697)  19 C2     3px    ( 0.1472)
                21 C2     3py    (-0.2080)  23 C2     3pz    ( 0.1211)  30 C3     2s     ( 0.3442)  32 C3     2px    (-0.3693)
                33 C3     3px    (-0.2811)  34 C3     2py    ( 0.3315)  36 C3     2pz    (-0.1921)  44 C4     2s     ( 0.1023)
                46 C4     2px    ( 0.4599)  47 C4     3px    ( 0.4650)  48 C4     2py    ( 0.7925)  49 C4     3py    ( 1.0839)
                50 C4     2pz    (-0.4570)  51 C4     3pz    (-0.6253)  58 C5     2s     (-0.1660)  60 C5     2px    ( 0.9263)
                61 C5     3px    ( 0.9389)  62 C5     2py    (-1.0551)  63 C5     3py    (-0.7707)  64 C5     2pz    ( 0.6087)
                65 C5     3pz    ( 0.4447)  72 O6     2s     ( 0.4324)  73 O6     3s     ( 0.2177)  74 O6     2px    (-0.2753)
                75 O6     3px    (-0.3999)  77 O6     3py    (-0.4083)  79 O6     3pz    ( 0.2361)  85 H7     1s     ( 0.2652)
                93 C8     2px    ( 0.5658)  94 C8     3px    ( 0.4313)  95 C8     2py    (-0.8246)  96 C8     3py    (-0.7269)
                97 C8     2pz    ( 0.4754)  98 C8     3pz    ( 0.4191) 104 H9     1s     ( 0.7789) 105 H9     2s     ( 0.4525)
               110 H10    2s     ( 0.1214) 114 H11    1s     (-1.6631) 115 H11    2s     (-0.8732) 119 H12    1s     (-0.3396)
               120 H12    2s     (-0.2096) 124 H13    1s     ( 1.0594) 125 H13    2s     ( 0.5743) 129 H14    1s     (-0.2203)
               130 H14    2s     (-0.1177) 134 H15    1s     (-0.2214) 135 H15    2s     (-0.1183)
         51    0.0000    0.0000                                                                                                           
                 2 C1     2s     (-0.3135)   5 C1     3px    (-0.1309)   6 C1     2py    ( 1.1134)   7 C1     3py    ( 0.9833)
                 8 C1     2pz    (-0.6429)   9 C1     3pz    (-0.5681)  16 C2     2s     ( 0.4717)  18 C2     2px    ( 0.1249)
                19 C2     3px    ( 0.1313)  20 C2     2py    ( 1.1045)  21 C2     3py    ( 1.0182)  22 C2     2pz    (-0.6377)
                23 C2     3pz    (-0.5879)  30 C3     2s     (-0.4782)  32 C3     2px    ( 0.4856)  35 C3     3py    ( 0.1093)
                44 C4     2s     ( 0.5795)  45 C4     3s     ( 0.1847)  46 C4     2px    (-0.2350)  47 C4     3px    (-0.4235)
                48 C4     2py    ( 0.5464)  49 C4     3py    ( 0.5250)  50 C4     2pz    (-0.3155)  51 C4     3pz    (-0.3032)
                60 C5     2px    ( 0.3054)  61 C5     3px    ( 0.1423)  85 H7     1s     ( 1.7435)  86 H7     2s     ( 0.9028)
                92 C8     3s     (-0.1669)  93 C8     2px    ( 0.7164)  96 C8     3py    (-0.1174) 104 H9     1s     ( 0.2895)
               105 H9     2s     ( 0.1038) 109 H10    1s     (-1.1858) 110 H10    2s     (-0.6933) 119 H12    1s     (-1.8276)
               120 H12    2s     (-1.0477) 124 H13    1s     ( 0.5026) 125 H13    2s     ( 0.3125) 129 H14    1s     ( 0.3123)
               130 H14    2s     ( 0.1618) 134 H15    1s     ( 0.3123) 135 H15    2s     ( 0.1617)
[...]
--
 
--
 
      Von Neumann Entropy (Root   2) =  1.52379
 

      Mulliken population analysis for root number:  2
      -----------------------------------------------
 
 
++    Molecular charges:
      ------------------
 
      Mulliken charges per centre and basis function type
      ---------------------------------------------------
 
                C1      C2      C3      C4      C5      O6      H7      C8      H9      H10     H11     H12   
      1s       1.9992  1.9991  1.9991  1.9994  1.9994  2.0005  0.8723  1.9998  0.8884  0.8625  0.8458  0.8612
      2s       1.1063  1.0628  1.0494  1.0408  1.0146  1.7907  0.0197  0.8945  0.0313  0.0243  0.0130  0.0227
      2px      0.8955  0.9049  0.8896  0.8571  0.8993  1.0878  0.0152  0.9697  0.0152  0.0140  0.0127  0.0156
      2pz      0.9577  0.9600  0.9726  1.0078  0.9363  1.7131  0.0137  1.0727  0.0144  0.0154  0.0142  0.0139
      2py      0.9039  0.9055  0.9208  0.9420  0.8043  1.4353  0.0153  1.0794  0.0167  0.0187  0.0164  0.0159
      3s      -0.0167 -0.0217 -0.0272 -0.0144  0.0062 -0.0036  0.0000 -0.0219  0.0000  0.0000  0.0000  0.0000
      3px      0.0577  0.0792  0.0711  0.0721  0.0571 -0.0138  0.0000  0.0256  0.0000  0.0000  0.0000  0.0000
      3pz     -0.0042  0.0073 -0.0088  0.0112  0.0072 -0.0206  0.0000 -0.0076  0.0000  0.0000  0.0000  0.0000
      3py      0.0470  0.0608  0.0636  0.0670  0.0681 -0.0037  0.0000  0.0096  0.0000  0.0000  0.0000  0.0000
      3d2+     0.0300  0.0302  0.0298  0.0309  0.0483  0.0080  0.0000  0.0236  0.0000  0.0000  0.0000  0.0000
      3d1+     0.0224  0.0253  0.0262  0.0260  0.0384  0.0041  0.0000  0.0199  0.0000  0.0000  0.0000  0.0000
      3d0      0.0164  0.0163  0.0161  0.0154  0.0305  0.0064  0.0000  0.0276  0.0000  0.0000  0.0000  0.0000
      3d1-     0.0137  0.0142  0.0145  0.0141  0.0295  0.0084  0.0000  0.0143  0.0000  0.0000  0.0000  0.0000
      3d2-     0.0420  0.0423  0.0411  0.0374  0.0553  0.0081  0.0000  0.0267  0.0000  0.0000  0.0000  0.0000
      Total    6.0710  6.0863  6.0580  6.1067  5.9945  8.0209  0.9361  6.1337  0.9660  0.9350  0.9021  0.9293
 
      N-E     -0.0710 -0.0863 -0.0580 -0.1067  0.0055 -0.0209  0.0639 -0.1337  0.0340  0.0650  0.0979  0.0707
 
                H13     H14     H15   
      1s       0.8793  0.8838  0.8838
      2s       0.0309  0.0300  0.0300
      2px      0.0146  0.0083  0.0083
      2pz      0.0109  0.0241  0.0109
      2py      0.0154  0.0085  0.0217
      3s       0.0000  0.0000  0.0000
      3px      0.0000  0.0000  0.0000
      3pz      0.0000  0.0000  0.0000
      3py      0.0000  0.0000  0.0000
      3d2+     0.0000  0.0000  0.0000
      3d1+     0.0000  0.0000  0.0000
      3d0      0.0000  0.0000  0.0000
      3d1-     0.0000  0.0000  0.0000
      3d2-     0.0000  0.0000  0.0000
      Total    0.9511  0.9546  0.9546
 
      N-E      0.0489  0.0454  0.0454
 
      Total electronic charge=   52.000000
 
      Total            charge=   -0.000000
--
 
 

      Expectation values of various properties for root number:  2
      -----------------------------------------------------------
 
 
++    Molecular properties:
      ---------------------
 
      Charge (e):
                      =   -0.0000
      Dipole Moment (debye):
      Origin of the operator (angstrom)=    0.0000    0.0000    0.0000
                   X= -1.8837E-01               Y= -8.8965E-01               Z=  5.1321E-01           Total=  1.0442E+00
      Quadrupole Moment (debye*angstrom):
      Origin of the operator (angstrom)=    0.6109    0.4904   -0.2831
                  XX= -3.9268E+01              XY= -2.8558E+00              XZ=  1.6481E+00              YY= -4.3574E+01
                  YZ= -1.7249E+00              ZZ= -4.5566E+01
      In traceless form (debye*angstrom)
                  XX=  5.3020E+00              XY= -4.2837E+00              XZ=  2.4721E+00              YY= -1.1569E+00
                  YZ= -2.5873E+00              ZZ= -4.1451E+00
--
 

      LoProp population analysis for root number:  2
      -----------------------------------------------
 
 
++    LoProp analysis:
      ----------------
 
 
 
      Input file to MOLDEN was generated!
 
 
++    Static properties:
      ------------------
 
 
      LoProp Charges per center
 

                   C1       C2       C3       C4       C5       O6       H7       C8       H9       H10   
      Nuclear      6.0000   6.0000   6.0000   6.0000   6.0000   8.0000   1.0000   6.0000   1.0000   1.0000
      Electronic  -6.1033  -6.1300  -6.1217  -6.1744  -5.9289  -8.1320  -0.8956  -6.3389  -0.8924  -0.8776
 
      Total       -0.1033  -0.1300  -0.1217  -0.1744   0.0711  -0.1320   0.1044  -0.3389   0.1076   0.1224
 

                   H11      H12      H13      H14      H15   
      Nuclear      1.0000   1.0000   1.0000   1.0000   1.0000
      Electronic  -0.8691  -0.8905  -0.8862  -0.8798  -0.8798
 
      Total        0.1309   0.1095   0.1138   0.1202   0.1202
--
 
 
      Natural Bond Order analysis for root number:  2
 
++    Natural Bond Order analysis
      ---------------------------
      Based on LoProp computed density
      -------------------------------------------------------------------------------------
      Atom A       Atom B       Bond Order
      -------------------------------------------------------------------------------------
      NBO located      0.998 non-bonded electrons on atom C1        
      NBO located      0.998 non-bonded electrons on atom C2        
      NBO located      0.998 non-bonded electrons on atom C3        
      NBO located      0.997 non-bonded electrons on atom C4        
      NBO located      0.997 non-bonded electrons on atom C5        
      NBO located      0.997 non-bonded electrons on atom O6        
      NBO located      0.995 non-bonded electrons on atom C8        
      The remaining   24.667 electrons are to be considered as diffuse
--
 
--
 
      Von Neumann Entropy (Root   3) =  1.95050
 

      Mulliken population analysis for root number:  3
      -----------------------------------------------
 
 
++    Molecular charges:
      ------------------
 
      Mulliken charges per centre and basis function type
      ---------------------------------------------------
 
                C1      C2      C3      C4      C5      O6      H7      C8      H9      H10     H11     H12   
      1s       1.9992  1.9991  1.9991  1.9994  1.9994  2.0005  0.8723  1.9998  0.8886  0.8641  0.8889  0.8612
      2s       1.1064  1.0630  1.0497  1.0512  1.0150  1.7907  0.0197  0.8945  0.0314  0.0254  0.0147  0.0227
      2px      0.8955  0.9052  0.8898  0.8830  0.8990  1.8197  0.0152  0.9697  0.0153  0.0142  0.0127  0.0156
      2pz      0.9606  0.9076  1.0087  0.9005  0.8595  1.2378  0.0139  1.0741  0.0148  0.0140  0.0125  0.0136
      2py      0.9049  0.8880  0.9344  0.9073  0.7795  1.3660  0.0153  1.0799  0.0169  0.0183  0.0154  0.0158
      3s      -0.0167 -0.0218 -0.0272 -0.0163  0.0072 -0.0036  0.0000 -0.0219  0.0000  0.0000  0.0000  0.0000
      3px      0.0577  0.0793  0.0711  0.0746  0.0503 -0.0181  0.0000  0.0256  0.0000  0.0000  0.0000  0.0000
      3pz     -0.0283  0.0017 -0.0061  0.0012  0.0145 -0.0168  0.0000 -0.0045  0.0000  0.0000  0.0000  0.0000
      3py      0.0390  0.0589  0.0644  0.0634  0.0705 -0.0033  0.0000  0.0106  0.0000  0.0000  0.0000  0.0000
      3d2+     0.0293  0.0309  0.0289  0.0312  0.0663  0.0080  0.0000  0.0234  0.0000  0.0000  0.0000  0.0000
      3d1+     0.0217  0.0279  0.0251  0.0256  0.0391  0.0042  0.0000  0.0207  0.0000  0.0000  0.0000  0.0000
      3d0      0.0144  0.0183  0.0133  0.0156  0.0225  0.0072  0.0000  0.0270  0.0000  0.0000  0.0000  0.0000
      3d1-     0.0129  0.0151  0.0133  0.0145  0.0314  0.0087  0.0000  0.0141  0.0000  0.0000  0.0000  0.0000
      3d2-     0.0417  0.0432  0.0410  0.0371  0.0734  0.0079  0.0000  0.0269  0.0000  0.0000  0.0000  0.0000
      Total    6.0385  6.0165  6.1055  5.9884  5.9277  8.2089  0.9364  6.1399  0.9670  0.9360  0.9443  0.9289
 
      N-E     -0.0385 -0.0165 -0.1055  0.0116  0.0723 -0.2089  0.0636 -0.1399  0.0330  0.0640  0.0557  0.0711
 
                H13     H14     H15   
      1s       0.8793  0.8861  0.8861
      2s       0.0309  0.0285  0.0285
      2px      0.0146  0.0082  0.0082
      2pz      0.0109  0.0241  0.0109
      2py      0.0154  0.0085  0.0216
      3s       0.0000  0.0000  0.0000
      3px      0.0000  0.0000  0.0000
      3pz      0.0000  0.0000  0.0000
      3py      0.0000  0.0000  0.0000
      3d2+     0.0000  0.0000  0.0000
      3d1+     0.0000  0.0000  0.0000
      3d0      0.0000  0.0000  0.0000
      3d1-     0.0000  0.0000  0.0000
      3d2-     0.0000  0.0000  0.0000
      Total    0.9512  0.9554  0.9554
 
      N-E      0.0488  0.0446  0.0446
 
      Total electronic charge=   52.000000
 
      Total            charge=   -0.000000
--
 
 

      Expectation values of various properties for root number:  3
      -----------------------------------------------------------
 
 
++    Molecular properties:
      ---------------------
 
      Charge (e):
                      =   -0.0000
      Dipole Moment (debye):
      Origin of the operator (angstrom)=    0.0000    0.0000    0.0000
                   X= -2.7968E+00               Y= -2.4265E+00               Z=  1.4010E+00           Total=  3.9589E+00
      Quadrupole Moment (debye*angstrom):
      Origin of the operator (angstrom)=    0.6109    0.4904   -0.2831
                  XX= -4.5645E+01              XY= -6.7587E+00              XZ=  3.9031E+00              YY= -4.7620E+01
                  YZ=  1.5869E+00              ZZ= -4.5790E+01
      In traceless form (debye*angstrom)
                  XX=  1.0597E+00              XY= -1.0138E+01              XZ=  5.8546E+00              YY= -1.9028E+00
                  YZ=  2.3803E+00              ZZ=  8.4307E-01
--
 

      LoProp population analysis for root number:  3
      -----------------------------------------------
 
 
++    LoProp analysis:
      ----------------
 
 
 
      Input file to MOLDEN was generated!
 
 
++    Static properties:
      ------------------
 
 
      LoProp Charges per center
 

                   C1       C2       C3       C4       C5       O6       H7       C8       H9       H10   
      Nuclear      6.0000   6.0000   6.0000   6.0000   6.0000   8.0000   1.0000   6.0000   1.0000   1.0000
      Electronic  -6.0929  -6.0376  -6.1641  -6.0659  -5.8272  -8.3354  -0.8962  -6.3382  -0.8929  -0.8781
 
      Total       -0.0929  -0.0376  -0.1641  -0.0659   0.1728  -0.3354   0.1038  -0.3382   0.1071   0.1219
 

                   H11      H12      H13      H14      H15   
      Nuclear      1.0000   1.0000   1.0000   1.0000   1.0000
      Electronic  -0.9347  -0.8912  -0.8862  -0.8797  -0.8797
 
      Total        0.0653   0.1088   0.1138   0.1203   0.1203
--
 
 
      Natural Bond Order analysis for root number:  3
 
++    Natural Bond Order analysis
      ---------------------------
      Based on LoProp computed density
      -------------------------------------------------------------------------------------
      Atom A       Atom B       Bond Order
      -------------------------------------------------------------------------------------
      NBO located      0.998 non-bonded electrons on atom C1        
      NBO located      0.998 non-bonded electrons on atom C2        
      NBO located      0.998 non-bonded electrons on atom C3        
      NBO located      0.997 non-bonded electrons on atom C4        
      NBO located      0.997 non-bonded electrons on atom C5        
      NBO located      0.998 non-bonded electrons on atom O6        
      NBO located      0.995 non-bonded electrons on atom C8        
      The remaining   24.318 electrons are to be considered as diffuse
--
 
--
 
 
      Input file to MOLDEN was generated!
 
 
      Input file to MOLDEN was generated!
 
 
      Input file to MOLDEN was generated!
 
 
      Input file to MOLDEN was generated!
 
      Average orbitals are written to the RASORB file
      Natural orbitals for root   1 are written to the RASORB.1 file
      Natural orbitals for root   2 are written to the RASORB.2 file
      Natural orbitals for root   3 are written to the RASORB.3 file
      Spin density orbitals for root   1 are written to the SPDORB.1 file
      Spin density orbitals for root   2 are written to the SPDORB.2 file
      Spin density orbitals for root   3 are written to the SPDORB.3 file
 
--- Stop Module: rasscf at Mon Nov  3 17:08:12 2025 /rc=_RC_ALL_IS_WELL_ ---
*** files: seperate_mscapst2_1.LprOrb seperate_mscapst2_1.rasscf.molden.1 seperate_mscapst2_1.rasscf.molden seperate_mscapst2_1.rasscf.molden.2 seperate_mscapst2_1.rasscf.molden.3
           seperate_mscapst2_1.LoProp.molden seperate_mscapst2_1.RasOrb.1 seperate_mscapst2_1.RasOrb.3 seperate_mscapst2_1.RasOrb seperate_mscapst2_1.RasOrb.2
           seperate_mscapst2_1.rasscf.h5 seperate_mscapst2_1.SpdOrb.3 seperate_mscapst2_1.SpdOrb.2 seperate_mscapst2_1.SpdOrb.1 xmldump
    saved to directory /dodrio/scratch/projects/starting_2025_097/speedup_mscaspt2/root1/seperate_mscapst2_1
--- Module rasscf spent 13 seconds ---

*** symbolic link created: INPORB -> seperate_mscapst2_1.RasOrb
--- Start Module: caspt2 at Mon Nov  3 17:08:12 2025 ---
 
()()()()()()()()()()()()()()()()()()()()()()()()()()()()()()()()()()()()()()()()()()()()()()()()()()

                                              &CASPT2

                                   only a single process is used
                       available to each process: 4.0 GB of memory, 1 thread
                                            pid: 2576516
()()()()()()()()()()()()()()()()()()()()()()()()()()()()()()()()()()()()()()()()()()()()()()()()()()
 
 
++    Wave function specifications:
      -----------------------------
 
      Number of closed shell electrons          30
      Number of electrons in active shells       8
      Max number of holes in RAS1 space          0
      Max number of electrons in RAS3 space      0
      Number of inactive orbitals               15
      Number of active orbitals                  7
      Number of secondary orbitals             109
      Spin quantum number                      0.0
      State symmetry                             1
      Number of CSFs                           490
      Number of CASSCF root(s) available         3
      CASPT2 state passed to geometry opt.       3
      A file JOBMIX will be created
      This is a MULTI-STATE CASSCF reference
      Number of CI roots used                    3
      These are:                                 1   2   3
      Off-diagonal elements of Heff are computed
--
 
++    Orbital specifications:
      -----------------------
 
      Symmetry species                           1
                                                 a
      Frozen orbitals                            7
      Inactive orbitals                         15
      Active orbitals                            7
      Secondary orbitals                       109
      Deleted orbitals                           0
      Number of basis functions                138
--
 
++    CASPT2 specifications:
      ----------------------
 
      Type of calculation                        MS-CASPT2
      Fock operator                              state-specific
      IPEA shift                                 0.25
      Real shift                                 0.00
      Imaginary shift                            0.10
      The input orbitals will be transformed to quasi-canonical
--
 
--------------------------------------------------------------------------------
 Estimated memory requirements:
  POLY3 :                   294488
  RHS:                     1757444
  SIGMA :                  2767900
  PRPCTL:                        0
 Available workspace:    499952235
 
++ CASPT2 computation for group   1
 
********************************************************************************
 Multi-State initialization phase begins for group   1
--------------------------------------------------------------------------------
********************************************************************************
 Compute H0 matrices for state    1
--------------------------------------------------------------------------------
--------------------------------------------------------------------------------
 H0 matrices have been computed.
 
********************************************************************************
  CASPT2 EQUATION SOLUTION
--------------------------------------------------------------------------------
 
  Total nr of CASPT2 parameters:
   Before reduction:     3256403
   After  reduction:     3251168
 
 Variance of |WF0>:       3.0672224396
 
 The contributions to the second order correlation energy in atomic units.
-----------------------------------------------------------------------------------------------------------------------------
  IT.      VJTU        VJTI        ATVX        AIVX        VJAI        BVAT        BJAT        BJAI        TOTAL       RNORM  
-----------------------------------------------------------------------------------------------------------------------------
   1    -0.000228   -0.004613   -0.021757   -0.108807   -0.027699   -0.050955   -0.189904   -0.483575   -0.887539    0.004257
   2    -0.000233   -0.004663   -0.021911   -0.109169   -0.027780   -0.051008   -0.190016   -0.483685   -0.888464    0.000415
   3    -0.000232   -0.004664   -0.021912   -0.109186   -0.027782   -0.051008   -0.190025   -0.483685   -0.888496    0.000055
   4    -0.000233   -0.004664   -0.021912   -0.109182   -0.027781   -0.051008   -0.190024   -0.483684   -0.888488    0.000008
   5    -0.000233   -0.004664   -0.021912   -0.109182   -0.027781   -0.051008   -0.190024   -0.483684   -0.888487    0.000001
-----------------------------------------------------------------------------------------------------------------------------
 
  FINAL CASPT2 RESULT:
 
      Reference energy:        -306.8286755922
      E2 (Non-variational):      -0.8884874782
      Shift correction:          -0.0012032815
      E2 (Variational):          -0.8896907597
      Total energy:            -307.7183663518
      Residual norm:              0.0000001676
      Reference weight:           0.76778
 
      Contributions to the CASPT2 correlation energy
      Active & Virtual Only:         -0.0729195706
      One Inactive Excited:          -0.2994385929
      Two Inactive Excited:          -0.5161293147
 
 
++ Denominators, etc.
--------------------------------------------------------------------------------------------------------------
 Report on small energy denominators, large coefficients, and large energy contributions.
CASE  SYMM ACTIVE-MIX  NON-ACTIVE INDICES          DENOMINATOR     RHS VALUE       COEFFICIENT     CONTRIBUTION
--
 
   (Skipping property calculation,
    use PROP keyword to activate)
 
 Hamiltonian Effective Couplings
 -------------------------------
 
                 |    1 > 
 <    1 |  -3.07718366351843E+02
 <    2 |  -2.87472779157622E-06
 <    3 |   1.15618812199640E-03
 
Time spent for multi-state couplings for root    1:
 ----------------- CPU TIME  -------- WALL TIME
 <    1 |             0.000               0.000
 <    2 |             0.070               0.130
 <    3 |             0.080               0.080
--
 
  Total CASPT2 energies:
::    CASPT2 Root  1     Total energy:   -307.71836635
 
  A NEW JOBIPH FILE NAMED 'JOBMIX' IS PREPARED.
********************************************************************************
--- Stop Module: caspt2 at Mon Nov  3 17:08:31 2025 /rc=_RC_ALL_IS_WELL_ ---
*** files: xmldump
    saved to directory /dodrio/scratch/projects/starting_2025_097/speedup_mscaspt2/root1/seperate_mscapst2_1
--- Module caspt2 spent 18 seconds ---

.##################.
.# Happy landing! #.
.##################.

    Timing: Wall=37.67 User=16.45 System=4.41
