   This run of MOLCAS is using the pymolcas driver

                             OPE
                             OPE          NMOL  CASOP  ENMOLC A   SO
                 OPE        NMOLC        AS  OP EN  MO LC     AS  OP
                OPENM       OL CA        SO  PE NM  OL CA     SOP EN
                OP EN      MO   LC       AS  OP ENMOL  CASO   PENMOL
                OP  EN     MO   LC       AS  OP EN     MO     LC ASO
               OP   E  NMOL  C  AS       OP  EN MO     LC     AS  OP
               OP  E   NMO   LC AS        OPEN  MO     LCASOP EN   M
               O  PEN   MO  LCA  SO
            OPE   NMO   L   CAS    OP
        OPENMOL  CASOP     ENMOL   CASOPE
     OPENMOLCA   SOPENMOLCASOPEN   MOLCASOPE
    OPENMOLCAS   OP           EN   MOL    CAS
    OPENMOLCAS       OP  ENM        O     LCA
    OPENMOLCAS    OPEN  MOLCASO     P  E  NMO
    OPENMOLCAS     OP               E  N  MOL
    OPENMOLCA   SO           PENM   O  L  CAS    OPEN    MO    LCAS
    OPENMOLCA   SOP           ENM   O  L  CAS   OP  EN  MOLC  AS   O
    OPENMOLCA   SOPE           NM      O  LCA   S      OP  EN MO
    OPENMOLC                AS         O  PEN   M      OL  CA  SOPE
    OPENMO        LCASOPE  NMOL        C  ASO   P      ENMOLC     AS
    OPE     NMO      LCA  SO     P     E   NM   OL  CA SO  PE N   MO
          OPENMOLCA            SOPE   NMO        LCAS  O    P  ENMO
     OPENMOLCASOPENMOLCASOPENMOLCASOPENMOLCA
        OPENMOLCASOPENMOLCASOPENMOLCASOPE
            OPENMOLCASOPENMOLCASOPENM
               OPENMOLCASOPENMOLCA        version: v25.06 ?
                   OPENMOLCASO
                       OPE                tag:

 OpenMolcas is free software; you can redistribute it and/or modify it
 under the terms of the GNU Lesser General Public License version 2.1.
 OpenMolcas is distributed in the hope that it will be useful, but it
 is provided "as is" and without any express or implied warranties.
 For more details see the full text of the license in the file
 LICENSE or in <http://www.gnu.org/licenses/>.

                 Copyright (C) The OpenMolcas Authors
           For the author list and the recommended citation,
                   consult the file CONTRIBUTORS.md

           *************************************************
           * pymolcas version py2.29                       *
           *   build 637753c454b0e8fef9459a9b878b37a5      *
           *   (after the EMIL interpreter by V. Veryazov) *
           *************************************************

configuration info
------------------
Host name: node5385.dodrio.os (Linux)
C Compiler ID: IntelLLVM
C flags: -O2 -march=core-avx2 -fp-model precise -std=gnu99 -qopenmp
Fortran Compiler ID: Intel
Fortran flags: -O2 -march=core-avx2 -fp-model precise  -fpp -i8 -heap-arrays -qopenmp
Definitions: _MOLCAS_;_I8_;_LINUX_
Parallel: OFF (GA=OFF)


   ----------------------------------------------------------------------------------------------------------------------
  |
  |           Project: Po2casscf
  |    Submitted from: /dodrio/scratch/projects/starting_2025_097/speedup_mscaspt2/SO_CASSI_test/casscf/singlet
  |      Scratch area: /dodrio/scratch/projects/starting_2025_097/molcas_workdirs/casscf_singlet_speedup/Po2casscf.57995
  |   Save outputs to: /dodrio/scratch/projects/starting_2025_097/speedup_mscaspt2/SO_CASSI_test/casscf/singlet/Po2casscf
  |            Molcas: /readonly/dodrio/apps/RHEL9/zen3-ib/software/OpenMolcas/25.06-iomkl-2023a-DMRG-no-MPI
  |
  | Scratch area is empty
  |
  |    MOLCAS_DRIVER = /readonly/dodrio/apps/RHEL9/zen3-ib/software/OpenMolcas/25.06-iomkl-2023a-DMRG-no-MPI/pymolcas
  |    MOLCAS_MOLDEN = ON
  |    MOLCAS_NPROCS = 1
  |     MOLCAS_PRINT = verbose
  |    MOLCAS_SOURCE = /readonly/dodrio/apps/RHEL9/zen3-ib/software/OpenMolcas/25.06-iomkl-2023a-DMRG-no-MPI
  | MOLCAS_STRUCTURE = 0
  |
   ----------------------------------------------------------------------------------------------------------------------

++ ---------   Input file   ---------

>>> EXPORT MOLCAS_PRINT = verbose

>>> EXPORT MOLCAS_MOLDEN = ON

>>> EXPORT OMP_NUM_THREADS = 1

>>> EXPORT MOLCAS_MEM = 20000

&GATEWAY
  Title= Po2
  Coord= /dodrio/scratch/projects/starting_2025_097/speedup_mscaspt2/SO_CASSI_test/casscf/singlet/equilibrium_structures/Po2.xyz
  Basis set
  ANO-RCC-VTZP
  Group= NoSym

&SEWARD
cholesky
End of input

&RASSCF
  Title
  Po2_RASSCF_S1_I1
  FILEORB=/dodrio/scratch/projects/starting_2025_097/CAS_comparison/multi_state/diatomics_merlijn/latest/UHF_high_s/sm3/Po2/Po2_B500_S8_sm3/autocas_project/final/Po2_B500_S8_sm3.RasOrb
  Symmetry
  1
  Spin
  1
  CIROOT
  21  21  1
  nActEl
  12  0  0
  Inactive
  80
  Ras2
  8
  Linear
  Lumorb
  THRS
  1.0e-08  1.0e-04  1.0e-04
  Levshft
  1.50
  Iteration
  200  50
  CIMX
  200
  SDAV
  500
End of Input

-- ----------------------------------

>>> EXPORT MOLCAS_PRINT = verbose

>>> EXPORT MOLCAS_MOLDEN = ON

>>> EXPORT OMP_NUM_THREADS = 1

>>> EXPORT MOLCAS_MEM = 20000

--- Start Module: gateway at Mon Nov 10 15:18:04 2025 ---
 
()()()()()()()()()()()()()()()()()()()()()()()()()()()()()()()()()()()()()()()()()()()()()()()()()()

                                              &GATEWAY

                                   only a single process is used
                        available to each process: 20 GB of memory, 1 thread
                                             pid: 57999
()()()()()()()()()()()()()()()()()()()()()()()()()()()()()()()()()()()()()()()()()()()()()()()()()()
 
 
 
 Basis Set     1 Label: PO.ANO-RCC-VTZP
 Basis set is read from library:basis_library 
 Basis Set Reference(s):
     B.O. Roos, R. Lindh, P.-A. Malmqvist, V. Veryazov, P.-O. Widmark. J. Phys. Chem. A 108 (2004) 2851-2858. doi:10.1021/jp031064+
     POLONIUM (25s,22p,16d,12f,4g) -> [11s,10p,9d,6f,4g]
 
 
 
               ****************************************************************************************
               *                                                                                      *
               *                                         Po2                                          *
               *                                                                                      *
               ****************************************************************************************
 
  Weights used for alignment and distance                     
  mat. size =     2x    1
      208.9824308000000030
      208.9824308000000030
 
 
++    Symmetry information:
      ---------------------
 
                    Character Table for C1 
 
                             E  
                    a        1  x, y, xy, Rz, z, xz, Ry, yz, Rx, I
--
 
 
++    Basis set information:
      ----------------------
 
 
      Basis set label: PO.ANO-RCC...8S7P5D3F2G.
 
      Electronic valence basis set:
      ------------------
      Associated Effective Charge  84.000000 au
      Associated Actual Charge     84.000000 au
      Nuclear Model: Point charge
 
      Shell  nPrim  nBasis  Cartesian Spherical Contaminant
         s      25       8        X                  
         p      22       7        X                  
         d      16       5                 X         
         f      12       3                 X         
         g       4       2                 X         
 
       Label   Cartesian Coordinates / bohr
 
 PO1                0.0000000000        0.0000000000        0.0000000000
 PO2                0.0000000000        0.0000000000        5.2855639742
--
 
 
++    Molecular structure info:
      -------------------------
 
                    ************************************************ 
                    **** Cartesian Coordinates / bohr, angstrom **** 
                    ************************************************ 
 
     Center  Label                x              y              z                     x              y              z
        1      PO1              0.000000       0.000000       0.000000              0.000000       0.000000       0.000000
        2      PO2              0.000000       0.000000       5.285564              0.000000       0.000000       2.797000
--
 
 
++    Isotope specification:
      ----------------------
 
 Center
 Type   Z    A    mass (Da)
 --------------------------
    1  84  209   208.982431
--
 
 
++    Rigid rotor info:
      -----------------
 
 
                    Total mass (a) : 417.96486
 
                    Center of mass 
                          X          Y   
                       0.00000    0.00000    2.64278
 
                    Reference system based on center of mass
                    Coordinates and Masses of Atoms, in au and A
                          X          Y          Z        Mass
                       0.00000    0.00000   -2.64278  208.98243
                       0.00000    0.00000    2.64278  208.98243
 
                    The Moment of Inertia Tensor / au
                                     X          Y        Z     
                    X             5.3214E+06
                    Y             0.0000E+00 5.3214E+06
                    Z             0.0000E+00 0.0000E+00 1.4045E-10
 
 
  Pax                                                         
  mat. size =     3x    3
        1.0000000000000000      0.0000000000000000      0.0000000000000000
        0.0000000000000000      1.0000000000000000      0.0000000000000000
        0.0000000000000000      0.0000000000000000      1.0000000000000000
                    The Principal Axes and Moments of Inertia (au)
                    Eigenvalues : 5.3214E+06 5.3214E+06 0.0000E+00
                                     X'         Y'       Z'    
                    Eigenvectors:
                    X             1.0000E+00 0.0000E+00 0.0000E+00
                    Y             0.0000E+00 1.0000E+00 0.0000E+00
                    Z             0.0000E+00 0.0000E+00 1.0000E+00
 
                    The Rotational Constants
                            (cm-1)            (GHz)
                              0.021            0.618
                              0.021            0.618
 
 
                    *******************************************
                    *                                         *
                    * R I G I D - R O T O R   A N A L Y S I S *
                    *                                         *
                    *******************************************
 
                    j(Max):  5
 
                    Rotor Type: Linear Rotor
                    Asymmetry parameter: -1.000
                    Prolate = -1
                    Oblate  =  1
 
 
                    Rotational energies / cm-1
 
                    E(J= 0) =    0.000
 
                    E(J= 1) =    0.041
 
                    E(J= 2) =    0.124
 
                    E(J= 3) =    0.247
 
                    E(J= 4) =    0.412
 
                    E(J= 5) =    0.619
--
 
 
++    Primitive basis info:
      ---------------------
 
 
                    *****************************************************
                    ******** Primitive Basis Functions (Valence) ********
                    *****************************************************
 
 
 Basis set:PO.ANO-RCC...8S7P5D3F2G.                                                        
 
                  Type         
                   s
           No.      Exponent    Contraction Coefficients
            1  5.449886210E+07   0.001372  -0.000545   0.000263  -0.000134   0.000061  -0.000022   0.000029  -0.000036
            2  1.309612090E+07   0.001655  -0.000659   0.000318  -0.000162   0.000074  -0.000027   0.000035  -0.000044
            3  3.878386940E+06   0.004355  -0.001738   0.000840  -0.000426   0.000196  -0.000071   0.000093  -0.000115
            4  1.248126680E+06   0.007628  -0.003059   0.001479  -0.000751   0.000345  -0.000126   0.000164  -0.000202
            5  4.308857500E+05   0.015370  -0.006206   0.003004  -0.001526   0.000701  -0.000256   0.000333  -0.000410
            6  1.569159280E+05   0.028094  -0.011488   0.005573  -0.002832   0.001301  -0.000475   0.000619  -0.000764
            7  5.987864890E+04   0.052832  -0.022033   0.010725  -0.005453   0.002507  -0.000915   0.001189  -0.001464
            8  2.371398000E+04   0.096445  -0.041611   0.020368  -0.010378   0.004770  -0.001740   0.002273  -0.002810
            9  9.664090770E+03   0.172969  -0.078960   0.039057  -0.019927   0.009174  -0.003352   0.004342  -0.005336
           10  4.042681300E+03   0.276518  -0.139525   0.070244  -0.036074   0.016600  -0.006054   0.007948  -0.009858
           11  1.740536270E+03   0.332765  -0.195104   0.101327  -0.052237   0.024157  -0.008846   0.011337  -0.013831
           12  7.714290540E+02   0.207520  -0.100108   0.048465  -0.024974   0.011335  -0.004077   0.005828  -0.007626
           13  3.509046200E+02   0.033460   0.324239  -0.257708   0.149371  -0.070445   0.025710  -0.035082   0.044705
           14  1.662260150E+02   0.001274   0.597476  -0.633726   0.391200  -0.190493   0.070723  -0.088761   0.107134
           15  8.123101390E+01  -0.001023   0.229632  -0.120435   0.073075  -0.031957   0.010576  -0.023102   0.035630
           16  4.069936800E+01   0.000845   0.011176   0.875754  -1.007843   0.564316  -0.212203   0.305398  -0.405577
           17  2.034905250E+01  -0.000639   0.000346   0.454578  -0.545544   0.337843  -0.136631   0.135306  -0.128028
           18  1.004866100E+01   0.000415  -0.000070   0.016906   1.039372  -0.968782   0.419716  -0.512671   0.631755
           19  4.919576700E+00  -0.000227  -0.000155   0.006194   0.569226  -0.766253   0.346614  -0.644020   0.976028
           20  2.213117740E+00   0.000110   0.000103  -0.002707   0.008495   1.057822  -0.667287   1.621686  -3.134957
           21  9.608370900E-01  -0.000051  -0.000045   0.001105   0.006564   0.592168  -0.606242  -0.086453   2.470886
           22  3.725348200E-01   0.000022   0.000021  -0.000495  -0.002588  -0.012320   0.727524  -1.767929   0.370391
           23  1.318544300E-01  -0.000011  -0.000011   0.000249   0.001277   0.013187   0.695013   0.798028  -2.324753
           24  5.274177000E-02   0.000006   0.000006  -0.000128  -0.000669  -0.006818  -0.006153   0.537905   1.502491
           25  2.109670000E-02  -0.000002  -0.000002   0.000038   0.000199   0.002057   0.016983   0.118563   0.268138
 
                  Type         
                   p
           No.      Exponent    Contraction Coefficients
           26  2.004599670E+07   0.000036  -0.000019   0.000009  -0.000004   0.000001  -0.000002   0.000003
           27  3.786356900E+06   0.000092  -0.000048   0.000024  -0.000010   0.000003  -0.000005   0.000007
           28  8.903308880E+05   0.000265  -0.000138   0.000070  -0.000030   0.000009  -0.000013   0.000020
           29  2.404348700E+05   0.000719  -0.000376   0.000191  -0.000083   0.000025  -0.000036   0.000055
           30  7.229226460E+04   0.002009  -0.001055   0.000535  -0.000232   0.000069  -0.000103   0.000155
           31  2.385278250E+04   0.005725  -0.003024   0.001537  -0.000669   0.000198  -0.000293   0.000445
           32  8.590617060E+03   0.016546  -0.008837   0.004504  -0.001955   0.000580  -0.000868   0.001308
           33  3.360337110E+03   0.046986  -0.025510   0.013058  -0.005696   0.001686  -0.002490   0.003781
           34  1.413273460E+03   0.122805  -0.068857   0.035515  -0.015439   0.004585  -0.006890   0.010367
           35  6.301800150E+02   0.263698  -0.154584   0.080705  -0.035431   0.010488  -0.015402   0.023484
           36  2.941769660E+02   0.386429  -0.236366   0.124663  -0.054223   0.016158  -0.024657   0.036833
           37  1.421068570E+02   0.289230  -0.087631   0.029034  -0.011884   0.003254  -0.003229   0.006016
           38  6.887919950E+01   0.070671   0.405405  -0.329155   0.162092  -0.048443   0.068662  -0.108601
           39  3.473946720E+01   0.000362   0.555391  -0.465730   0.219227  -0.067174   0.110209  -0.161367
           40  1.739252360E+01   0.000926   0.167515   0.256050  -0.178579   0.059798  -0.111742   0.164776
           41  8.586781540E+00  -0.000575   0.007511   0.732992  -0.583333   0.185980  -0.254805   0.444452
           42  4.183036740E+00   0.000242   0.000664   0.249760   0.033435  -0.018440  -0.021540  -0.083020
           43  1.882156340E+00  -0.000099  -0.000261   0.008476   0.778081  -0.366193   0.844081  -1.536784
           44  8.255012700E-01   0.000042   0.000039   0.001165   0.353880  -0.091689  -0.484751   1.896833
           45  2.553136800E-01  -0.000013  -0.000015  -0.000321   0.015645   0.643100  -0.860964  -0.617526
           46  8.323531000E-02   0.000006   0.000008   0.000133  -0.001016   0.487752   0.696574  -0.737265
           47  3.329412000E-02  -0.000002  -0.000003  -0.000054   0.000445   0.032674   0.420368   1.047820
 
                  Type         
                   d
           No.      Exponent    Contraction Coefficients
           48  9.664090770E+03   0.000382  -0.000205   0.000076  -0.000051   0.000083
           49  4.042681300E+03   0.001085  -0.000580   0.000212  -0.000143   0.000233
           50  1.740536270E+03   0.005379  -0.002910   0.001087  -0.000723   0.001176
           51  7.714290540E+02   0.022329  -0.012107   0.004459  -0.003003   0.004891
           52  3.509046200E+02   0.080636  -0.044594   0.016679  -0.011135   0.018169
           53  1.662260150E+02   0.215630  -0.120756   0.044800  -0.030210   0.049418
           54  8.123101390E+01   0.380175  -0.209202   0.078452  -0.052088   0.084100
           55  4.069936800E+01   0.361781  -0.127098   0.038199  -0.025173   0.036225
           56  2.034905250E+01   0.137645   0.264650  -0.129018   0.094536  -0.170551
           57  1.004866100E+01   0.012690   0.536895  -0.260948   0.174847  -0.273288
           58  4.919576700E+00   0.001035   0.308465  -0.025794   0.002722   0.066539
           59  2.213117740E+00  -0.000252   0.042871   0.455881  -0.464563   0.989590
           60  9.608370900E-01   0.000131  -0.001050   0.523945  -0.174190  -0.771632
           61  3.725348200E-01  -0.000060   0.000571   0.177569   0.626021  -0.550505
           62  1.490139200E-01   0.000029  -0.000287   0.000864   0.442169   0.790498
           63  5.960556000E-02  -0.000010   0.000090   0.003931   0.068945   0.186975
 
                  Type         
                   f
           No.      Exponent    Contraction Coefficients
           64  6.301800150E+02   0.001210  -0.000416   0.000276
           65  2.941769660E+02   0.004603  -0.001622   0.000979
           66  1.421068570E+02   0.024199  -0.008382   0.005495
           67  6.887919950E+01   0.080867  -0.028275   0.017417
           68  3.473946720E+01   0.200382  -0.071077   0.047482
           69  1.739252360E+01   0.341928  -0.126936   0.086663
           70  8.586781540E+00   0.366591  -0.125620   0.096615
           71  4.183036740E+00   0.229261   0.031815  -0.055658
           72  1.882156340E+00   0.064227   0.544244  -0.530719
           73  7.528625300E-01   0.002061   0.478125   0.084904
           74  3.011450100E-01   0.000674   0.097675   0.722391
           75  1.204580000E-01  -0.000239   0.029294   0.242334
 
                  Type         
                   g
           No.      Exponent    Contraction Coefficients
           76  1.767416000E+00   0.666694  -0.763738
           77  7.069664000E-01   0.385204   0.490461
           78  2.827865000E-01   0.146884   0.576575
           79  1.131146000E-01   0.004997   0.075172
 
  Number of primitives                                   582
  Number of basis functions                              186
 
--
 
 
++    SO/AO info:
      -----------
 
                    **************************************************
                    ********** Petite list Basis Functions ***********
                    **************************************************
 
 
           Basis functions generated by E  
 
 Basis Label        Type   Center
    1  PO1           1s       1
    2  PO1           2s       1
    3  PO1           3s       1
    4  PO1           4s       1
    5  PO1           5s       1
    6  PO1           6s       1
    7  PO1           7s       1
    8  PO1           8s       1
    9  PO1           2px      1
   10  PO1           3px      1
   11  PO1           4px      1
   12  PO1           5px      1
   13  PO1           6px      1
   14  PO1           7px      1
   15  PO1           8px      1
   16  PO1           2py      1
   17  PO1           3py      1
   18  PO1           4py      1
   19  PO1           5py      1
   20  PO1           6py      1
   21  PO1           7py      1
   22  PO1           8py      1
   23  PO1           2pz      1
   24  PO1           3pz      1
   25  PO1           4pz      1
   26  PO1           5pz      1
   27  PO1           6pz      1
   28  PO1           7pz      1
   29  PO1           8pz      1
   30  PO1           3d2-     1
   31  PO1           4d2-     1
   32  PO1           5d2-     1
   33  PO1           6d2-     1
   34  PO1           7d2-     1
   35  PO1           3d1-     1
   36  PO1           4d1-     1
   37  PO1           5d1-     1
   38  PO1           6d1-     1
   39  PO1           7d1-     1
   40  PO1           3d0      1
   41  PO1           4d0      1
   42  PO1           5d0      1
   43  PO1           6d0      1
   44  PO1           7d0      1
   45  PO1           3d1+     1
   46  PO1           4d1+     1
   47  PO1           5d1+     1
   48  PO1           6d1+     1
   49  PO1           7d1+     1
   50  PO1           3d2+     1
   51  PO1           4d2+     1
   52  PO1           5d2+     1
   53  PO1           6d2+     1
   54  PO1           7d2+     1
   55  PO1           4f3-     1
   56  PO1           5f3-     1
   57  PO1           6f3-     1
   58  PO1           4f2-     1
   59  PO1           5f2-     1
   60  PO1           6f2-     1
   61  PO1           4f1-     1
   62  PO1           5f1-     1
   63  PO1           6f1-     1
   64  PO1           4f0      1
   65  PO1           5f0      1
   66  PO1           6f0      1
   67  PO1           4f1+     1
   68  PO1           5f1+     1
   69  PO1           6f1+     1
   70  PO1           4f2+     1
   71  PO1           5f2+     1
   72  PO1           6f2+     1
   73  PO1           4f3+     1
   74  PO1           5f3+     1
   75  PO1           6f3+     1
   76  PO1           5g4-     1
   77  PO1           6g4-     1
   78  PO1           5g3-     1
   79  PO1           6g3-     1
   80  PO1           5g2-     1
   81  PO1           6g2-     1
   82  PO1           5g1-     1
   83  PO1           6g1-     1
   84  PO1           5g0      1
   85  PO1           6g0      1
   86  PO1           5g1+     1
   87  PO1           6g1+     1
   88  PO1           5g2+     1
   89  PO1           6g2+     1
   90  PO1           5g3+     1
   91  PO1           6g3+     1
   92  PO1           5g4+     1
   93  PO1           6g4+     1
   94  PO2           1s       2
   95  PO2           2s       2
   96  PO2           3s       2
   97  PO2           4s       2
   98  PO2           5s       2
   99  PO2           6s       2
  100  PO2           7s       2
  101  PO2           8s       2
  102  PO2           2px      2
  103  PO2           3px      2
  104  PO2           4px      2
  105  PO2           5px      2
  106  PO2           6px      2
  107  PO2           7px      2
  108  PO2           8px      2
  109  PO2           2py      2
  110  PO2           3py      2
  111  PO2           4py      2
  112  PO2           5py      2
  113  PO2           6py      2
  114  PO2           7py      2
  115  PO2           8py      2
  116  PO2           2pz      2
  117  PO2           3pz      2
  118  PO2           4pz      2
  119  PO2           5pz      2
  120  PO2           6pz      2
  121  PO2           7pz      2
  122  PO2           8pz      2
  123  PO2           3d2-     2
  124  PO2           4d2-     2
  125  PO2           5d2-     2
  126  PO2           6d2-     2
  127  PO2           7d2-     2
  128  PO2           3d1-     2
  129  PO2           4d1-     2
  130  PO2           5d1-     2
  131  PO2           6d1-     2
  132  PO2           7d1-     2
  133  PO2           3d0      2
  134  PO2           4d0      2
  135  PO2           5d0      2
  136  PO2           6d0      2
  137  PO2           7d0      2
  138  PO2           3d1+     2
  139  PO2           4d1+     2
  140  PO2           5d1+     2
  141  PO2           6d1+     2
  142  PO2           7d1+     2
  143  PO2           3d2+     2
  144  PO2           4d2+     2
  145  PO2           5d2+     2
  146  PO2           6d2+     2
  147  PO2           7d2+     2
  148  PO2           4f3-     2
  149  PO2           5f3-     2
  150  PO2           6f3-     2
  151  PO2           4f2-     2
  152  PO2           5f2-     2
  153  PO2           6f2-     2
  154  PO2           4f1-     2
  155  PO2           5f1-     2
  156  PO2           6f1-     2
  157  PO2           4f0      2
  158  PO2           5f0      2
  159  PO2           6f0      2
  160  PO2           4f1+     2
  161  PO2           5f1+     2
  162  PO2           6f1+     2
  163  PO2           4f2+     2
  164  PO2           5f2+     2
  165  PO2           6f2+     2
  166  PO2           4f3+     2
  167  PO2           5f3+     2
  168  PO2           6f3+     2
  169  PO2           5g4-     2
  170  PO2           6g4-     2
  171  PO2           5g3-     2
  172  PO2           6g3-     2
  173  PO2           5g2-     2
  174  PO2           6g2-     2
  175  PO2           5g1-     2
  176  PO2           6g1-     2
  177  PO2           5g0      2
  178  PO2           6g0      2
  179  PO2           5g1+     2
  180  PO2           6g1+     2
  181  PO2           5g2+     2
  182  PO2           6g2+     2
  183  PO2           5g3+     2
  184  PO2           6g3+     2
  185  PO2           5g4+     2
  186  PO2           6g4+     2
 
      Basis set specifications :
      Symmetry species        a  
      Basis functions         186
--
 
 
            Nuclear Potential Energy           1334.95688152 au
 
--- Stop Module: gateway at Mon Nov 10 15:18:05 2025 /rc=_RC_ALL_IS_WELL_ ---
*** files: xmldump
    saved to directory /dodrio/scratch/projects/starting_2025_097/speedup_mscaspt2/SO_CASSI_test/casscf/singlet/Po2casscf

--- Start Module: seward at Mon Nov 10 15:18:05 2025 ---
 
()()()()()()()()()()()()()()()()()()()()()()()()()()()()()()()()()()()()()()()()()()()()()()()()()()

                                              &SEWARD

                                   only a single process is used
                        available to each process: 20 GB of memory, 1 thread
                                             pid: 58006
()()()()()()()()()()()()()()()()()()()()()()()()()()()()()()()()()()()()()()()()()()()()()()()()()()
 
 
  Weights used for alignment and distance                     
  mat. size =     2x    1
      208.9824308000000030
      208.9824308000000030
 
               SEWARD will generate:
                  Multipole Moment integrals up to order  2
                  Kinetic Energy integrals
                  Nuclear Attraction integrals (point charge)
                  One-Electron Hamiltonian integrals
                  Velocity integrals
                  Relativistic Douglas-Kroll-Hess integrals:
                    - Parametrization         : EXP
                    - DKH order of Hamiltonian: 2
                    - DKH order of Properties : 0
                         - multipole moment operators
                         - electric potential operators
                         - contact operators
                  Orbital angular momentum around (  0.0000   0.0000   2.6428 )
                  Velocity quadrupole around (  0.0000   0.0000   2.6428 )
                  Atomic mean-field integrals
                  Cholesky decomposed two-electron repulsion integrals
                   - CD Threshold:   1.00E-04
 
               ****************************************************************************************
               *                                                                                      *
               *                                         Po2                                          *
               *                                                                                      *
               ****************************************************************************************
 
                   Integrals are discarded if absolute value <: 1.00E-40
                   Integral cutoff threshold is set to       <: 1.00E-40
 
++    SO/AO info:
      -----------
 
                    **************************************************
                    ********** Petite list Basis Functions ***********
                    **************************************************
 
 
           Basis functions generated by E  
 
 Basis Label        Type   Center
    1  PO1           1s       1
    2  PO1           2s       1
    3  PO1           3s       1
    4  PO1           4s       1
    5  PO1           5s       1
    6  PO1           6s       1
    7  PO1           7s       1
    8  PO1           8s       1
    9  PO1           2px      1
   10  PO1           3px      1
   11  PO1           4px      1
   12  PO1           5px      1
   13  PO1           6px      1
   14  PO1           7px      1
   15  PO1           8px      1
   16  PO1           2py      1
   17  PO1           3py      1
   18  PO1           4py      1
   19  PO1           5py      1
   20  PO1           6py      1
   21  PO1           7py      1
   22  PO1           8py      1
   23  PO1           2pz      1
   24  PO1           3pz      1
   25  PO1           4pz      1
   26  PO1           5pz      1
   27  PO1           6pz      1
   28  PO1           7pz      1
   29  PO1           8pz      1
   30  PO1           3d2-     1
   31  PO1           4d2-     1
   32  PO1           5d2-     1
   33  PO1           6d2-     1
   34  PO1           7d2-     1
   35  PO1           3d1-     1
   36  PO1           4d1-     1
   37  PO1           5d1-     1
   38  PO1           6d1-     1
   39  PO1           7d1-     1
   40  PO1           3d0      1
   41  PO1           4d0      1
   42  PO1           5d0      1
   43  PO1           6d0      1
   44  PO1           7d0      1
   45  PO1           3d1+     1
   46  PO1           4d1+     1
   47  PO1           5d1+     1
   48  PO1           6d1+     1
   49  PO1           7d1+     1
   50  PO1           3d2+     1
   51  PO1           4d2+     1
   52  PO1           5d2+     1
   53  PO1           6d2+     1
   54  PO1           7d2+     1
   55  PO1           4f3-     1
   56  PO1           5f3-     1
   57  PO1           6f3-     1
   58  PO1           4f2-     1
   59  PO1           5f2-     1
   60  PO1           6f2-     1
   61  PO1           4f1-     1
   62  PO1           5f1-     1
   63  PO1           6f1-     1
   64  PO1           4f0      1
   65  PO1           5f0      1
   66  PO1           6f0      1
   67  PO1           4f1+     1
   68  PO1           5f1+     1
   69  PO1           6f1+     1
   70  PO1           4f2+     1
   71  PO1           5f2+     1
   72  PO1           6f2+     1
   73  PO1           4f3+     1
   74  PO1           5f3+     1
   75  PO1           6f3+     1
   76  PO1           5g4-     1
   77  PO1           6g4-     1
   78  PO1           5g3-     1
   79  PO1           6g3-     1
   80  PO1           5g2-     1
   81  PO1           6g2-     1
   82  PO1           5g1-     1
   83  PO1           6g1-     1
   84  PO1           5g0      1
   85  PO1           6g0      1
   86  PO1           5g1+     1
   87  PO1           6g1+     1
   88  PO1           5g2+     1
   89  PO1           6g2+     1
   90  PO1           5g3+     1
   91  PO1           6g3+     1
   92  PO1           5g4+     1
   93  PO1           6g4+     1
   94  PO2           1s       2
   95  PO2           2s       2
   96  PO2           3s       2
   97  PO2           4s       2
   98  PO2           5s       2
   99  PO2           6s       2
  100  PO2           7s       2
  101  PO2           8s       2
  102  PO2           2px      2
  103  PO2           3px      2
  104  PO2           4px      2
  105  PO2           5px      2
  106  PO2           6px      2
  107  PO2           7px      2
  108  PO2           8px      2
  109  PO2           2py      2
  110  PO2           3py      2
  111  PO2           4py      2
  112  PO2           5py      2
  113  PO2           6py      2
  114  PO2           7py      2
  115  PO2           8py      2
  116  PO2           2pz      2
  117  PO2           3pz      2
  118  PO2           4pz      2
  119  PO2           5pz      2
  120  PO2           6pz      2
  121  PO2           7pz      2
  122  PO2           8pz      2
  123  PO2           3d2-     2
  124  PO2           4d2-     2
  125  PO2           5d2-     2
  126  PO2           6d2-     2
  127  PO2           7d2-     2
  128  PO2           3d1-     2
  129  PO2           4d1-     2
  130  PO2           5d1-     2
  131  PO2           6d1-     2
  132  PO2           7d1-     2
  133  PO2           3d0      2
  134  PO2           4d0      2
  135  PO2           5d0      2
  136  PO2           6d0      2
  137  PO2           7d0      2
  138  PO2           3d1+     2
  139  PO2           4d1+     2
  140  PO2           5d1+     2
  141  PO2           6d1+     2
  142  PO2           7d1+     2
  143  PO2           3d2+     2
  144  PO2           4d2+     2
  145  PO2           5d2+     2
  146  PO2           6d2+     2
  147  PO2           7d2+     2
  148  PO2           4f3-     2
  149  PO2           5f3-     2
  150  PO2           6f3-     2
  151  PO2           4f2-     2
  152  PO2           5f2-     2
  153  PO2           6f2-     2
  154  PO2           4f1-     2
  155  PO2           5f1-     2
  156  PO2           6f1-     2
  157  PO2           4f0      2
  158  PO2           5f0      2
  159  PO2           6f0      2
  160  PO2           4f1+     2
  161  PO2           5f1+     2
  162  PO2           6f1+     2
  163  PO2           4f2+     2
  164  PO2           5f2+     2
  165  PO2           6f2+     2
  166  PO2           4f3+     2
  167  PO2           5f3+     2
  168  PO2           6f3+     2
  169  PO2           5g4-     2
  170  PO2           6g4-     2
  171  PO2           5g3-     2
  172  PO2           6g3-     2
  173  PO2           5g2-     2
  174  PO2           6g2-     2
  175  PO2           5g1-     2
  176  PO2           6g1-     2
  177  PO2           5g0      2
  178  PO2           6g0      2
  179  PO2           5g1+     2
  180  PO2           6g1+     2
  181  PO2           5g2+     2
  182  PO2           6g2+     2
  183  PO2           5g3+     2
  184  PO2           6g3+     2
  185  PO2           5g4+     2
  186  PO2           6g4+     2
 
      Basis set specifications :
      Symmetry species        a  
      Basis functions         186
--
 
 
            Nuclear Potential Energy           1334.95688152 au
 
 
      Basis set specifications :
      Symmetry species         a  
      Basis functions          186
 
  SO-integrals were calculated for Po: [Xe+4f^14+5d^10]6s^2 6p^4 
  SO-integrals were calculated for Po: [Xe+4f^14+5d^10]6s^2 6p^4 


********************************************************************************
*                                                                              *
*          Cholesky Decomposition of Two-Electron Repulsion Integrals          *
*                                                                              *
********************************************************************************
 
 



***** Cholesky initialization completed *****
Total CPU  time:       0 hours  0 minutes   5.97 seconds
Total wall time:       0 hours  0 minutes   6.03 seconds



***** Starting Cholesky diagonal setup *****



***** Cholesky diagonal setup completed *****
Total CPU  time:       0 hours  0 minutes   5.95 seconds
Total wall time:       0 hours  0 minutes   6.02 seconds



***** Starting Cholesky decomposition *****



***** Cholesky decomposition completed *****
Total CPU  time:       0 hours  2 minutes  50.17 seconds
Total wall time:       0 hours  2 minutes  52.48 seconds



***** Starting Cholesky diagonal check *****



***** Cholesky diagonal check completed *****
Total CPU  time:       0 hours  0 minutes   0.09 seconds
Total wall time:       0 hours  0 minutes   0.28 seconds



***** Starting Cholesky finalization *****



***** Cholesky finalization completed *****
Total CPU  time:       0 hours  0 minutes   0.02 seconds
Total wall time:       0 hours  0 minutes   0.08 seconds



***** Starting Cholesky statistics *****


  Cholesky Decomposition Statistics
  =================================


  Configuration
  -------------
Decomposition algorithm                   : par one-step
1-center decomposition                    :           No
Decomposition threshold                   :   1.0000E-04
Initial diagonal prescreening             :   1.0000E-14
Initial diagonal screening                :   0.0000E+00
First  screening damping                  :   1.0000E+05 (screening on) 
Second screening damping                  :   1.0000E+05 (screening on) 
Absolute values used in diagonal screening:           No
Threshold for negative  diagonal zeroing  :  -1.0000E-40
Threshold for warning about neg. diagonal :  -1.0000E-10
Threshold for too negative diagonal       :  -1.0000E-08
Span factor                               :   1.0000E-02
Max. #Cholesky vectors per symmetry       :         3720
Max. #reduced sets (i.e., integral passes):         3720
Min. #qualified required for decomposition:           50
Max. #qualified per symmetry              :          100
Max. memory fraction for qualified columns:      33.3333%
Max. #shell pair allowed per integral pass:            1
Qualification algorithm                   :      sorting
Algorithm for Cholesky vector I/O         : lrgbuf/rs2rs
Address mode for Cholesky vector I/O      :    word addr.
Memory fraction used as vector buffer     :      35.0000%


  Vector statistics
  -----------------

Sym.        N      Full      Mmax         M    M/Full    M/Mmax       M/N
--------------------------------------------------------------------------
  1       186     17391     16868      1191    0.0685    0.0706    6.4032
--------------------------------------------------------------------------
          186     17391     16868      1191    0.0685    0.0706    6.4032
--------------------------------------------------------------------------

                       %Saving relative to
Sym.     Storage      1st Red. Set     Full
---------------------------------------------
 1       143.532 Mb       6.3555       9.1717
---------------------------------------------
Total:   143.532 Mb       6.3555       9.1717
---------------------------------------------
Total storage corresponds to  13.223146% of the 1st reduced set integral matrix.


  Parent Diagonals
  ----------------

Number of vectors from 1-center diagonals:     1191 ( 100.00%)
Number of vectors from 2-center diagonals:        0 (   0.00%)

 Vectors from 1-center diagonals:

Label                    PO1         PO2   
Center no.                  1         2
Vectors (M)               593       598
Basis functions (N)        93        93
Ratio (M/N)              6.38      6.43


  Integral statistics
  -------------------

#Shells                  :        10
#Shell Pair Distributions:        55
#Integral passes         :        46
#Calls to integral prog. :        46
#Shell Pairs Calculated  :        27 (  49.091 % of total)
#Shell Pairs Repeated    :        17 (  62.963 % of calculated)

#Calculations     #Shell Pairs   Percentage
-------------------------------------------
           1                10       18.182
           2                15       27.273
           3                 2        3.636
-------------------------------------------


  Section timings
  ---------------

                                 CPU time          Wall time
Section                      hours min. sec.    hours min. sec.
---------------------------------------------------------------
Initialization                   0   0   6.0        0   0   6.0
Diagonal setup                   0   0   5.9        0   0   6.0
Cholesky decomposition           0   2  50.2        0   2  52.5
Diagonal check                   0   0   0.1        0   0   0.3
Finalization                     0   0   0.0        0   0   0.1
---------------------------------------------------------------


  Timing of decomposition driver
  ------------------------------

Task           Component           CPU (min.)     %   Wall (min.)     %
-------------------------------------------------------------------------
Integrals      calculation               2.81   98.93        2.83   98.51
               I/O, qualifieds           0.00    0.01        0.00    0.11
Decomposition  I/O, qualifieds           0.00    0.01        0.00    0.01
               I/O, vectors              0.00    0.17        0.01    0.38
               vector subtraction        0.02    0.62        0.02    0.68
               qualified CD              0.00    0.00        0.00    0.02
Misc.          qualification             0.00    0.00        0.00    0.00
               red. set write            0.00    0.01        0.00    0.02
               info write                0.00    0.02        0.00    0.02
               diagonal sync             0.00    0.00        0.00    0.00
               vector count sync         0.00    0.00        0.00    0.00
               etc.                      0.01    0.24        0.01    0.25
-------------------------------------------------------------------------
Total:                                   2.84                2.87
-------------------------------------------------------------------------
Total #system calls for vector read  :           0
Total #DGEMM  calls for vector subtr.:          45



***** Cholesky statistics completed *****
Total CPU  time:       0 hours  0 minutes   0.00 seconds
Total wall time:       0 hours  0 minutes   0.01 seconds





***** Cholesky procedure completed *****
Total CPU  time:       0 hours  3 minutes   2.20 seconds
Total wall time:       0 hours  3 minutes   4.90 seconds


      Cholesky vectors        1191
 
 
 
      Input file to MOLDEN was generated!
 
++ I/O STATISTICS
 
  I. General I/O information
  - - - - - - - - - - - - - - - - - - - - - - - - - - - - - - - - - - - - - - - - - - -
  Unit  Name          Flsize      Write/Read            MBytes           Write/Read
                      (MBytes)       Calls              In/Out           Time, sec.
  - - - - - - - - - - - - - - - - - - - - - - - - - - - - - - - - - - - - - - - - - - -
   1  RUNFILE           0.75 .    1400/    8775 .     10.4/     64.0 .       0/       0
   2  NQGRID            0.00 .       4/       0 .      0.0/      0.0 .       0/       0
   3  ONEREL           33.71 .      52/    1004 .     68.9/     18.6 .       0/       0
   4  ONEINT            5.60 .      70/     188 .     53.2/     25.7 .       0/       0
   5  CHRED             5.46 .      94/     180 .      5.5/     10.4 .       0/       0
   6  CHVEC1          143.53 .      46/       1 .    143.5/    143.5 .       0/       0
   7  CHORST            0.05 .     552/       0 .      1.5/      0.0 .       0/       0
   8  CHOMAP            0.00 .      46/       0 .      0.0/      0.0 .       0/       0
   9  CHODIAG           0.13 .       1/       1 .      0.1/      0.1 .       0/       0
  10  CHOSEL1          12.73 .      46/    3678 .    296.0/    149.7 .       0/       0
  - - - - - - - - - - - - - - - - - - - - - - - - - - - - - - - - - - - - - - - - - - -
   *  TOTAL           201.97 .    2311/   13827 .    579.0/    412.0 .       0/       0
  - - - - - - - - - - - - - - - - - - - - - - - - - - - - - - - - - - - - - - - - - - -
 
  II. I/O Access Patterns
  - - - - - - - - - - - - - - - - - - - -
  Unit  Name               % of random
                         Write/Read calls
  - - - - - - - - - - - - - - - - - - - -
   1  RUNFILE             28.6/  10.2
   2  NQGRID              25.0/   0.0
   3  ONEREL              96.2/   1.1
   4  ONEINT              97.1/   9.0
   5  CHRED               46.8/  25.6
   6  CHVEC1               0.0/ 100.0
   7  CHORST               8.2/   0.0
   8  CHOMAP              97.8/   0.0
   9  CHODIAG              0.0/   0.0
  10  CHOSEL1              0.0/  99.5
  - - - - - - - - - - - - - - - - - - - -
--
--- Stop Module: seward at Mon Nov 10 15:21:13 2025 /rc=_RC_ALL_IS_WELL_ ---
*** files: Po2casscf.GssOrb Po2casscf.guessorb.h5 Po2casscf.guessorb.molden xmldump
    saved to directory /dodrio/scratch/projects/starting_2025_097/speedup_mscaspt2/SO_CASSI_test/casscf/singlet/Po2casscf
--- Module seward spent 3 minutes 8 seconds ---

*** symbolic link created: INPORB -> Po2casscf.GssOrb
--- Start Module: rasscf at Mon Nov 10 15:21:14 2025 ---
 
()()()()()()()()()()()()()()()()()()()()()()()()()()()()()()()()()()()()()()()()()()()()()()()()()()

                                              &RASSCF

                                   only a single process is used
                        available to each process: 20 GB of memory, 1 thread
                                             pid: 58871
()()()()()()()()()()()()()()()()()()()()()()()()()()()()()()()()()()()()()()()()()()()()()()()()()()
 
  Orbital specification was read from input.
 
      Header of the ONEINT file:
      --------------------------
      
      Integrals generated by Gateway/Seward, Mon Nov 10 15:18:05 2025
 
 
      OrdInt status: non-squared
 
 
      Cartesian coordinates in angstrom:
      -----------------------------------------------------
      No.  Label        X            Y            Z        
      -----------------------------------------------------
       1   PO1        0.00000000   0.00000000   0.00000000
       2   PO2        0.00000000   0.00000000   2.79700000
      -----------------------------------------------------
      Nuclear repulsion energy = 1334.95688152
 
++    Wave function specifications:
      -----------------------------
 
      Number of closed shell electrons         160
      Number of electrons in active shells      12
      Max number of holes in RAS1 space          0
      Max nr of electrons in RAS3 space          0
      Number of inactive orbitals               80
      Number of active orbitals                  8
      Number of secondary orbitals              98
      Spin quantum number                      0.0
      State symmetry                             1
--
 
++    Orbital specifications:
      -----------------------
 
      Symmetry species                           1
                                                 a
      Frozen orbitals                            0
      Inactive orbitals                         80
      Active orbitals                            8
      RAS1 orbitals                              0
      RAS2 orbitals                              8
      RAS3 orbitals                              0
      Secondary orbitals                        98
      Deleted orbitals                           0
      Number of basis functions                186
--
 
++    CI expansion specifications:
      ----------------------------
 
      Number of CSFs                           336
      Number of determinants                   406
      Number of root(s) required                21
      Root chosen for geometry opt.             21
      CI roots used                              1     2     3     4     5     6     7     8     9    10
                                                11    12    13    14    15    16    17    18    19    20
                                                21
      weights                                0.048 0.048 0.048 0.048 0.048 0.048 0.048 0.048 0.048 0.048
                                             0.048 0.048 0.048 0.048 0.048 0.048 0.048 0.048 0.048 0.048
                                             0.048
      highest root included in the CI           21
      max. size of the explicit Hamiltonian    336
--
 
++    Optimization specifications:
      ----------------------------
 
      RASSCF algorithm: LK Cholesky
      Maximum number of macro iterations       200
      Maximum number of SX iterations           50
      Threshold for RASSCF energy            1.000E-08
      Threshold for max MO rotation          1.000E-04
      Threshold for max BLB element          1.000E-04
      Level shift parameter                  1.500E+00
      Make Quasi-Newton update
      Supersymmetry is used to disable selected orbital rotations
--
 
      The MO-coefficients are taken from the file:
      /dodrio/scratch/projects/starting_2025_097/CAS_comparison/multi_state/diatomics_merlijn/latest/UHF_high_s/sm3/Po2/Po2_B500_S8_sm3/autocas_project/final/Po2_B500_S8_sm3.RasOrb
      Title: RASSCF average (pseudo-natural) orbitals                                      
 
      Total molecular charge   -4.00
 
      ************************************************************************************************************************
      *                                                                                                                      *
      *                                            Wave function control section                                             *
      *                                                                                                                      *
      ************************************************************************************************************************
 
 
                                         RASSCF iterations: Energy and convergence statistics
                                         ----------------------------------------------------
 
      Iter CI   SX   CI       RASSCF       Energy    max ROT     max BLB   max BLB  Level Ln srch  Step   QN   Walltime
          iter iter root      energy       change     param      element    value   shift minimum  type update hh:mm:ss
 Nr of preliminary CI iterations:   1
      Total energies have been shifted. Add               -44000.00 au
        1   1   27    0  -340.73870299    0.00E+00   5.10E-02*  79  91 1 -1.52E-01*  1.39   0.00    SX    NO    0:00:08
        2   1   22    0  -340.82146852   -8.28E-02*  3.78E-02*  83  89 1 -1.12E-01*  1.38   0.00    SX    NO    0:00:04
        3   1   12    0  -340.86064888   -3.92E-02*  2.89E-02*  83  89 1 -8.68E-02*  1.37   0.00    SX    NO    0:00:04
        4   1    7    0  -340.88309722   -2.24E-02*  2.26E-02*  83  89 1 -6.82E-02*  1.36   0.00    SX    NO    0:00:04
        5   1   10    0  -340.89641208   -1.33E-02*  2.94E-02*  83  89 1 -5.20E-02*  1.36   2.50    LS   YES    0:00:04
        6   1   10    0  -340.90809183   -1.17E-02*  2.94E-02*  83  89 1 -2.99E-02*  1.35   2.15    LS   YES    0:00:04
        7   1   11    0  -340.91313278   -5.04E-03*  1.45E-02*  81  98 1  1.93E-02*  1.35   1.22    QN   YES    0:00:04
        8   1   10    0  -340.91451048   -1.38E-03*  2.01E-02*  87  91 1  1.54E-02*  1.34   2.50    LS   YES    0:00:04
        9   1   10    0  -340.91517819   -6.68E-04*  1.19E-02*  87  91 1  1.43E-02*  1.34   0.96    QN   YES    0:00:04
       10   1   10    0  -340.91603427   -8.56E-04*  1.68E-02*  87  91 1  1.38E-02*  1.34   2.50    LS   YES    0:00:04
       11   1   10    0  -340.91652529   -4.91E-04* -1.67E-02*  87  91 1  1.30E-02*  1.34   1.08    QN   YES    0:00:04
       12   1   10    0  -340.91699270   -4.67E-04*  9.33E-02*  87  91 1  1.20E-02*  1.34   2.50    QN   YES    0:00:04
       13   1   11    0  -340.91825507   -1.26E-03* -1.41E-01*  87  91 1  7.84E-03*  1.34   1.74    QN   YES    0:00:04
       14   1   11    0  -340.91909689   -8.42E-04* -3.29E-01*  87 130 1  7.23E-03*  1.34   2.50    QN   YES    0:00:04
       15   1   11    0  -340.92093652   -1.84E-03* -2.43E-01*  87 130 1  1.23E-02*  1.34   2.50    LS   YES    0:00:04
       16   1   11    0  -340.92256697   -1.63E-03* -2.06E-01*  87 130 1  1.61E-02*  1.34   2.50    LS   YES    0:00:04
       17   1   11    0  -340.92409823   -1.53E-03* -4.07E-01*  87 130 1  1.93E-02*  1.34   2.50    QN   YES    0:00:04
       18   1   11    0  -340.92128723    2.81E-03* -2.25E-01*  87 130 1  1.10E-02*  1.34  -0.50    LS   YES    0:00:04
       19   1   11    0  -340.92288091   -1.59E-03* -4.06E-01*  87 130 1  1.55E-02*  1.34   2.50    QN   YES    0:00:04
       20   1   14    0  -340.92687648   -4.00E-03* -4.45E-01*  79  88 1  2.71E-02*  1.34   1.39    QN   YES    0:00:04
       21   1   11    0  -340.92266355    4.21E-03* -4.01E-01*  87 130 1  1.38E-02*  1.34   2.50    QN   YES    0:00:04
       22   1   14    0  -340.92660171   -3.94E-03* -2.64E-01*  79  88 1  2.64E-02*  1.34   2.50    LS   YES    0:00:04
       23   1   15    0  -340.92679907   -1.97E-04* -7.76E-02*  79  88 1  2.97E-02*  1.35   0.55    QN   YES    0:00:04
       24   1   12    0  -340.92983267   -3.03E-03* -9.38E-02*  79  88 1  3.00E-02*  1.34   2.34    QN   YES    0:00:04
       25   1    9    0  -340.93329859   -3.47E-03*  5.82E-02*  79  88 1  2.26E-02*  1.34   1.71    QN   YES    0:00:04
       26   1    9    0  -340.93500092   -1.70E-03*  2.94E-02*  79  88 1  1.18E-02*  1.34   1.55    LS   YES    0:00:04
       27   1    9    0  -340.93526088   -2.60E-04* -2.59E-02*  79  88 1  6.07E-03*  1.34   1.13    QN   YES    0:00:04
       28   1    9    0  -340.93559135   -3.30E-04* -2.92E-02*  86  98 1 -4.92E-03*  1.34   2.22    LS   YES    0:00:04
       29   1    8    0  -340.93573496   -1.44E-04* -7.58E-03*  86  98 1 -4.04E-03*  1.34   1.08    QN   YES    0:00:04
       30   1    8    0  -340.93582133   -8.64E-05* -8.88E-03*  79  86 1 -2.93E-03*  1.34   2.20    LS   YES    0:00:04
       31   1    8    0  -340.93585904   -3.77E-05*  6.25E-03*  79  86 1 -1.73E-03*  1.34   1.05    QN   YES    0:00:04
       32   1    7    0  -340.93588729   -2.82E-05* -3.56E-03*  86  98 1 -1.26E-03*  1.34   1.65    QN   YES    0:00:04
       33   1    7    0  -340.93590234   -1.50E-05* -2.50E-03*  86  98 1 -9.84E-04*  1.34   1.50    QN   YES    0:00:04
       34   1    7    0  -340.93591043   -8.09E-06* -3.26E-03*  86  98 1 -6.47E-04*  1.34   1.89    QN   YES    0:00:04
       35   1    7    0  -340.93591743   -7.00E-06*  2.83E-03*  79 140 1  5.44E-04*  1.34   1.57    QN   YES    0:00:04
       36   1    7    0  -340.93592110   -3.67E-06* -1.59E-03*  81  98 1  4.59E-04*  1.34   1.62    QN   YES    0:00:04
       37   1    7    0  -340.93592304   -1.93E-06* -7.29E-04*  81  98 1  3.81E-04*  1.34   1.52    QN   YES    0:00:04
       38   1    6    0  -340.93592387   -8.34E-07* -4.25E-04*  79  88 1 -2.79E-04*  1.34   1.56    QN   YES    0:00:04
       39   1    6    0  -340.93592426   -3.86E-07* -3.07E-04*  79  88 1 -1.83E-04*  1.34   1.51    QN   YES    0:00:04
       40   1    6    0  -340.93592442   -1.61E-07*  2.05E-04*  79  98 1  8.64E-05   1.34   1.45    QN   YES    0:00:04
       41   1    5    0  -340.93592448   -5.72E-08*  7.81E-05   81  98 1 -5.62E-05   1.34   1.39    QN   YES    0:00:04
       42   1    5    0  -340.93592449   -1.76E-08* -4.23E-05   81  98 1 -3.63E-05   1.34   1.44    QN   YES    0:00:04
       43   1    5    0  -340.93592450   -6.22E-09   3.26E-05   86 101 1 -1.57E-05   1.34   1.49    QN   YES    0:00:04
      Convergence after 43 iterations
       44   1    5    0  -340.93592450   -2.62E-09   3.26E-05   86 101 1 -1.16E-05   1.34   1.49    QN   YES    0:00:04
 
      ************************************************************************************************************************
                                                      Wave function printout:
                       occupation of active orbitals, and spin coupling of open shells (u,d: Spin up or down)
      ************************************************************************************************************************
 
      Note: transformation to natural orbitals
      has been made, which may change the order of the CSFs.
 
      printout of CI-coefficients larger than  0.05 for root  1
      energy=  -44341.188594
      conf/sym  11111111     Coeff  Weight
             1  22222200  -0.98542 0.97106
             4  22222020   0.09287 0.00862
            87  u2222udd  -0.08342 0.00696
           195  02222202   0.06109 0.00373
 
      printout of CI-coefficients larger than  0.05 for root  2
      energy=  -44341.048750
      conf/sym  11111111     Coeff  Weight
             2  22222ud0  -0.97251 0.94577
            82  u2222d20   0.12005 0.01441
            84  u222220d  -0.17738 0.03147
 
      printout of CI-coefficients larger than  0.05 for root  3
      energy=  -44341.022409
      conf/sym  11111111     Coeff  Weight
            21  222u22d0  -0.97239 0.94554
            25  222u2dud  -0.08868 0.00786
            35  222u20d2  -0.05391 0.00291
            42  22u22d20   0.09423 0.00888
            44  22u2220d  -0.12218 0.01493
           225  u2u222dd  -0.08777 0.00770
           270  022u22d2   0.05563 0.00310
 
      printout of CI-coefficients larger than  0.05 for root  4
      energy=  -44341.022308
      conf/sym  11111111     Coeff  Weight
             3  2222u2d0   0.97238 0.94552
            10  2222udud   0.08860 0.00785
            18  2222u0d2   0.05390 0.00290
            62  2u222d20   0.09419 0.00887
            64  2u22220d  -0.12237 0.01497
           197  0222u2d2  -0.05563 0.00309
           231  uu2222dd  -0.08776 0.00770
 
      printout of CI-coefficients larger than  0.05 for root  5
      energy=  -44340.999403
      conf/sym  11111111     Coeff  Weight
             4  22222020  -0.50156 0.25156
             7  22222u0d  -0.76566 0.58623
            15  22222002   0.17170 0.02948
            81  u22222d0   0.30060 0.09036
            85  u2222dud   0.11005 0.01211
            87  u2222udd   0.07524 0.00566
           191  02222220   0.08320 0.00692
           193  02222u2d  -0.06053 0.00366
           195  02222202  -0.09702 0.00941
 
      printout of CI-coefficients larger than  0.05 for root  6
      energy=  -44340.949918
      conf/sym  11111111     Coeff  Weight
            22  222u2d20  -0.32261 0.10408
            24  222u220d   0.34951 0.12216
            33  222u2d02   0.06154 0.00379
            41  22u222d0   0.86049 0.74045
            45  22u22dud   0.05524 0.00305
           161  u2d22220   0.06161 0.00380
           213  u22u22dd   0.08594 0.00739
           216  u22u2dd2   0.05793 0.00336
           302  02u222d2  -0.05398 0.00291
 
      printout of CI-coefficients larger than  0.05 for root  7
      energy=  -44340.949861
      conf/sym  11111111     Coeff  Weight
             5  2222ud20  -0.31260 0.09772
             8  2222u20d   0.36474 0.13304
            16  2222ud02   0.05955 0.00355
            61  2u2222d0  -0.85827 0.73663
            65  2u222dud  -0.05537 0.00307
            88  u222u2dd   0.08478 0.00719
            97  u222udd2   0.05774 0.00333
           181  ud222220  -0.05968 0.00356
           314  0u2222d2   0.05366 0.00288
 
      printout of CI-coefficients larger than  0.05 for root  8
      energy=  -44340.948503
      conf/sym  11111111     Coeff  Weight
             4  22222020  -0.63810 0.40717
             7  22222u0d   0.58072 0.33724
            81  u22222d0   0.44972 0.20225
            85  u2222dud  -0.16741 0.02803
            95  u22220d2   0.11203 0.01255
           191  02222220   0.05579 0.00311
 
      printout of CI-coefficients larger than  0.05 for root  9
      energy=  -44340.947098
      conf/sym  11111111     Coeff  Weight
            22  222u2d20   0.51470 0.26491
            24  222u220d   0.81302 0.66101
            29  222u202d  -0.06223 0.00387
            33  222u2d02  -0.10186 0.01038
            41  22u222d0  -0.11613 0.01349
            47  22u22udd  -0.12124 0.01470
           161  u2d22220  -0.09579 0.00918
           165  u2d22202   0.10019 0.01004
           213  u22u22dd  -0.06432 0.00414
 
      printout of CI-coefficients larger than  0.05 for root 10
      energy=  -44340.946988
      conf/sym  11111111     Coeff  Weight
             5  2222ud20  -0.52057 0.27099
             8  2222u20d  -0.80634 0.65019
            13  2222u02d   0.06149 0.00378
            16  2222ud02   0.10306 0.01062
            61  2u2222d0  -0.13249 0.01755
            67  2u222udd  -0.12115 0.01468
            88  u222u2dd   0.06598 0.00435
           181  ud222220  -0.09685 0.00938
           185  ud222202   0.10079 0.01016
 
      printout of CI-coefficients larger than  0.05 for root 11
      energy=  -44340.907425
      conf/sym  11111111     Coeff  Weight
             1  22222200  -0.08288 0.00687
             4  22222020  -0.49177 0.24184
             6  22220220   0.10387 0.01079
            81  u22222d0  -0.78210 0.61168
            85  u2222dud  -0.30370 0.09223
            87  u2222udd  -0.11126 0.01238
            95  u22220d2  -0.05604 0.00314
           101  22202220   0.10525 0.01108
           193  02222u2d  -0.06528 0.00426
 
      printout of CI-coefficients larger than  0.05 for root 12
      energy=  -44340.900279
      conf/sym  11111111     Coeff  Weight
            22  222u2d20   0.73965 0.54708
            24  222u220d  -0.39189 0.15358
            29  222u202d   0.09023 0.00814
            41  22u222d0   0.42186 0.17796
            45  22u22dud   0.23118 0.05344
            55  22u220d2   0.05076 0.00258
           132  u22d22ud   0.16587 0.02751
           213  u22u22dd   0.11984 0.01436
           226  u2u22d2d   0.05731 0.00328
 
      printout of CI-coefficients larger than  0.05 for root 13
      energy=  -44340.900144
      conf/sym  11111111     Coeff  Weight
             5  2222ud20  -0.73984 0.54737
             8  2222u20d   0.39180 0.15351
            13  2222u02d  -0.09017 0.00813
            61  2u2222d0   0.42159 0.17774
            65  2u222dud   0.23116 0.05344
            75  2u2220d2   0.05073 0.00257
            86  u222d2ud  -0.16585 0.02751
            88  u222u2dd  -0.11988 0.01437
           232  uu222d2d   0.05733 0.00329
 
      printout of CI-coefficients larger than  0.05 for root 14
      energy=  -44340.889662
      conf/sym  11111111     Coeff  Weight
            27  222u2udd   0.34498 0.11901
            42  22u22d20  -0.46589 0.21705
            44  22u2220d  -0.76110 0.57928
            53  22u22d02   0.07381 0.00545
           131  u22d2220   0.19777 0.03911
           133  u22d2u2d  -0.08222 0.00676
           135  u22d2202  -0.13986 0.01956
           225  u2u222dd   0.06555 0.00430
 
      printout of CI-coefficients larger than  0.05 for root 15
      energy=  -44340.889551
      conf/sym  11111111     Coeff  Weight
            12  2222uudd  -0.34490 0.11895
            62  2u222d20  -0.46533 0.21653
            64  2u22220d  -0.76157 0.57998
            73  2u222d02   0.07382 0.00545
            83  u222d220  -0.19745 0.03899
            90  u222du2d   0.08212 0.00674
            94  u222d202   0.13980 0.01954
           231  uu2222dd   0.06564 0.00431
 
      printout of CI-coefficients larger than  0.05 for root 16
      energy=  -44340.868254
      conf/sym  11111111     Coeff  Weight
             6  22220220   0.09834 0.00967
            23  222ud220  -0.92095 0.84815
            30  222udu2d   0.06676 0.00446
            34  222ud202   0.12676 0.01607
            46  22u2d2ud  -0.10564 0.01116
            48  22u2u2dd   0.06765 0.00458
           101  22202220  -0.10115 0.01023
           122  2u2d22ud   0.10562 0.01116
           151  2ud22220  -0.23443 0.05496
           155  2ud22202   0.07484 0.00560
           207  2u2u22dd  -0.06757 0.00457
           217  u22ud2d2   0.05494 0.00302
 
      printout of CI-coefficients larger than  0.05 for root 17
      energy=  -44340.868254
      conf/sym  11111111     Coeff  Weight
             6  22220220  -0.64198 0.41213
            17  22220202   0.08820 0.00778
            23  222ud220  -0.14108 0.01990
            66  2u22d2ud   0.10440 0.01090
            68  2u22u2dd  -0.06635 0.00440
           101  22202220   0.66030 0.43599
           105  22202202  -0.09104 0.00829
           112  22ud22ud   0.10683 0.01141
           141  22022220  -0.16878 0.02849
           145  22022202   0.05374 0.00289
           171  20222220   0.16274 0.02649
           175  20222202  -0.05210 0.00271
           201  22uu22dd  -0.06887 0.00474
 
      printout of CI-coefficients larger than  0.05 for root 18
      energy=  -44340.855677
      conf/sym  11111111     Coeff  Weight
             4  22222020  -0.10189 0.01038
             6  22220220  -0.64576 0.41701
            17  22220202   0.10013 0.01003
            66  2u22d2ud   0.08508 0.00724
            68  2u22u2dd  -0.08299 0.00689
            81  u22222d0  -0.10287 0.01058
           101  22202220  -0.62631 0.39226
           105  22202202   0.09751 0.00951
           112  22ud22ud  -0.08186 0.00670
           141  22022220   0.20905 0.04370
           145  22022202  -0.05645 0.00319
           171  20222220   0.21393 0.04577
           175  20222202  -0.05803 0.00337
           201  22uu22dd   0.08125 0.00660
 
      printout of CI-coefficients larger than  0.05 for root 19
      energy=  -44340.851664
      conf/sym  11111111     Coeff  Weight
             9  222220ud   0.90190 0.81343
            11  222202ud  -0.08152 0.00665
            63  2u22d220   0.05226 0.00273
            82  u2222d20   0.33114 0.10966
            84  u222220d  -0.08112 0.00658
            89  u222202d  -0.05423 0.00294
            93  u2222d02   0.20560 0.04227
           102  222022ud  -0.08225 0.00677
           111  22ud2220  -0.05276 0.00278
 
      printout of CI-coefficients larger than  0.05 for root 20
      energy=  -44340.849894
      conf/sym  11111111     Coeff  Weight
            21  222u22d0  -0.05509 0.00303
            25  222u2dud  -0.60036 0.36043
            35  222u20d2  -0.10609 0.01125
            42  22u22d20  -0.64107 0.41097
            44  22u2220d   0.42967 0.18462
            49  22u2202d  -0.07285 0.00531
           131  u22d2220   0.05508 0.00303
           162  u2d222ud  -0.06258 0.00392
           225  u2u222dd  -0.06990 0.00489
 
      printout of CI-coefficients larger than  0.05 for root 21
      energy=  -44340.849780
      conf/sym  11111111     Coeff  Weight
             3  2222u2d0   0.05511 0.00304
            10  2222udud   0.60049 0.36059
            18  2222u0d2   0.10599 0.01123
            62  2u222d20  -0.64153 0.41156
            64  2u22220d   0.42886 0.18392
            69  2u22202d  -0.07265 0.00528
            83  u222d220  -0.05495 0.00302
           182  ud2222ud  -0.06270 0.00393
           231  uu2222dd  -0.06991 0.00489
 
      Natural orbitals and occupation numbers for root  1
      sym 1:   1.983300   1.998092   1.998076   1.997993   1.998017   1.971369   0.031048   0.022105
 
      Natural orbitals and occupation numbers for root  2
      sym 1:   1.961153   1.999075   1.999066   1.998671   1.998683   1.030446   0.971728   0.041177
 
      Natural orbitals and occupation numbers for root  3
      sym 1:   1.980053   1.999440   1.965362   1.034455   1.999017   1.972546   0.993475   0.055652
 
      Natural orbitals and occupation numbers for root  4
      sym 1:   1.980058   1.965330   1.999434   1.999007   1.034489   1.972577   0.993427   0.055678
 
      Natural orbitals and occupation numbers for root  5
      sym 1:   1.850208   1.998677   1.998664   1.998540   1.998559   0.926820   0.639365   0.589167
 
      Natural orbitals and occupation numbers for root  6
      sym 1:   1.975338   1.999472   1.243412   1.753904   1.999145   1.877737   0.985205   0.165787
 
      Natural orbitals and occupation numbers for root  7
      sym 1:   1.976003   1.247537   1.999451   1.999131   1.749733   1.884306   0.968222   0.175616
 
      Natural orbitals and occupation numbers for root  8
      sym 1:   1.746991   1.998878   1.998866   1.997651   1.997686   0.800149   1.071741   0.388038
 
      Natural orbitals and occupation numbers for root  9
      sym 1:   1.969259   1.999065   1.948490   1.050114   1.999123   1.701322   0.600788   0.731839
 
      Natural orbitals and occupation numbers for root 10
      sym 1:   1.968848   1.944187   1.999071   1.999118   1.054502   1.695475   0.617166   0.721632
 
      Natural orbitals and occupation numbers for root 11
      sym 1:   1.363736   1.998295   1.998253   1.976285   1.976891   1.401334   1.166127   0.119079
 
      Natural orbitals and occupation numbers for root 12
      sym 1:   1.945243   1.999689   1.756159   1.243509   1.999318   1.365392   1.410279   0.280411
 
      Natural orbitals and occupation numbers for root 13
      sym 1:   1.945235   1.756380   1.999687   1.999311   1.243291   1.365094   1.410665   0.280337
 
      Natural orbitals and occupation numbers for root 14
      sym 1:   1.923870   1.999137   1.187896   1.811472   1.999165   1.643855   0.663906   0.770698
 
      Natural orbitals and occupation numbers for root 15
      sym 1:   1.924031   1.187687   1.999128   1.999157   1.811690   1.644451   0.662533   0.771324
 
      Natural orbitals and occupation numbers for root 16
      sym 1:   1.998092   1.916851   1.915995   1.079529   1.087351   1.994150   1.903818   0.104213
 
      Natural orbitals and occupation numbers for root 17
      sym 1:   1.998085   1.919206   1.913615   1.057934   1.108993   1.994140   1.903810   0.104216
 
      Natural orbitals and occupation numbers for root 18
      sym 1:   1.982413   1.881487   1.887132   1.167660   1.115396   1.970614   1.885082   0.110215
 
      Natural orbitals and occupation numbers for root 19
      sym 1:   1.841153   1.994503   1.994413   1.981377   1.981700   0.208917   1.067573   0.930363
 
      Natural orbitals and occupation numbers for root 20
      sym 1:   1.974068   1.999593   1.382602   1.616282   1.999373   1.200337   1.235941   0.591805
 
      Natural orbitals and occupation numbers for root 21
      sym 1:   1.974049   1.382734   1.999589   1.999366   1.616159   1.199653   1.237166   0.591283
 
      ************************************************************************************************************************
      *                                                                                                                      *
      *                                                    Final results                                                     *
      *                                                                                                                      *
      ************************************************************************************************************************
 
 
++    Final optimization conditions:
      ------------------------------
 
      Average CI energy                          -44340.93592450
      RASSCF energy for state 21                 -44340.84978044
      Super-CI energy                                -0.00000000
      RASSCF energy change                           -0.00000000
      Max change in MO coefficients               3.377E-05
      Max non-diagonal density matrix element     3.258E-05
      Maximum BLB matrix element                 -1.159E-05
      (orbital pair  86, 101 in symmetry   1)
      Norm of electronic gradient            7.960E-02
      Supersymmetry has been used to disable selected orbital rotations
      Supersymmetry vector for symmetry species  1
        0  0  0  0  0  0  1  1  1  1  0  0  0  0  1  1  1  1  0  0  1  1  1  1  2  2  2  2  0  0
        0  0  1  1  1  1  0  0  1  1  1  1  2  2  2  2  0  0  1  1  1  1  2  2  2  2  3  3  3  3
        0  0  0  0  1  1  1  1  1  1  0  1  1  2  2  2  2  0  0  0  0  1  1  1  1  0  0  0  1  1
        0  1  1  1  1  2  2  0  2  2  0  1  1  2  2  1  1  3  3  0  0  3  3  2  2  1  1  0  0  2
        2  1  1  3  3  1  1  4  4  0  4  4  3  3  2  2  1  1  0  0  0  1  1  2  2  1  1  0  3  3
        2  2  3  3  2  2  0  1  1  1  1  2  2  0  0  1  1  0  3  3  2  2  4  4  4  4  1  1  0  3
        3  2  2  1  1  0
--
 
 
      Final state energy(ies):
      ------------------------
 
::    RASSCF root number  1 Total energy: -44341.18859352
::    RASSCF root number  2 Total energy: -44341.04875039
::    RASSCF root number  3 Total energy: -44341.02240902
::    RASSCF root number  4 Total energy: -44341.02230765
::    RASSCF root number  5 Total energy: -44340.99940265
::    RASSCF root number  6 Total energy: -44340.94991802
::    RASSCF root number  7 Total energy: -44340.94986123
::    RASSCF root number  8 Total energy: -44340.94850333
::    RASSCF root number  9 Total energy: -44340.94709795
::    RASSCF root number 10 Total energy: -44340.94698788
::    RASSCF root number 11 Total energy: -44340.90742505
::    RASSCF root number 12 Total energy: -44340.90027875
::    RASSCF root number 13 Total energy: -44340.90014373
::    RASSCF root number 14 Total energy: -44340.88966224
::    RASSCF root number 15 Total energy: -44340.88955095
::    RASSCF root number 16 Total energy: -44340.86825352
::    RASSCF root number 17 Total energy: -44340.86825351
::    RASSCF root number 18 Total energy: -44340.85567665
::    RASSCF root number 19 Total energy: -44340.85166400
::    RASSCF root number 20 Total energy: -44340.84989404
::    RASSCF root number 21 Total energy: -44340.84978044
 
++    Molecular orbitals:
      -------------------
 
      Pseudonatural active orbitals and approximate occupation numbers
 
 
 
 
      Molecular orbitals for symmetry species 1: a  
 
 
      Orbital                 1         2         3         4         5         6         7         8         9        10
      Energy         -3430.8779-3430.8776 -625.2367 -625.2364 -536.9653 -536.9650 -536.9652 -536.9652 -536.9650 -536.9650
      Occ. No.           2.0000    2.0000    2.0000    2.0000    2.0000    2.0000    2.0000    2.0000    2.0000    2.0000
 
     1 PO1    1s         0.0011    1.0000    0.0000   -0.0000   -0.0000   -0.0000    0.0000    0.0000   -0.0000    0.0000
     2 PO1    2s         0.0000    0.0000    0.0052    1.0000    0.0000   -0.0000   -0.0000    0.0000   -0.0000    0.0000
     3 PO1    3s         0.0000   -0.0000    0.0000    0.0000   -0.0000    0.0000    0.0000    0.0000    0.0000   -0.0000
     4 PO1    4s         0.0000   -0.0000    0.0000   -0.0000   -0.0000   -0.0000    0.0000    0.0000   -0.0000    0.0000
     5 PO1    5s         0.0000   -0.0000    0.0000   -0.0000   -0.0000   -0.0000    0.0000    0.0000   -0.0000   -0.0000
     6 PO1    6s         0.0000   -0.0000    0.0000   -0.0000   -0.0000   -0.0000    0.0000   -0.0000    0.0000   -0.0000
     7 PO1    7s         0.0000   -0.0000    0.0000   -0.0000   -0.0000   -0.0000    0.0000    0.0000   -0.0000   -0.0000
     8 PO1    8s         0.0000   -0.0000    0.0000   -0.0000   -0.0000   -0.0000    0.0000    0.0000   -0.0000   -0.0000
     9 PO1    2px        0.0000    0.0000    0.0000    0.0000   -0.0000    0.0000    0.0000   -0.0012    1.0000    0.0006
    10 PO1    3px        0.0000   -0.0000   -0.0000    0.0000   -0.0000    0.0000    0.0000   -0.0000    0.0000    0.0000
    11 PO1    4px       -0.0000    0.0000    0.0000   -0.0000    0.0000   -0.0000    0.0000   -0.0000   -0.0000   -0.0000
    12 PO1    5px       -0.0000   -0.0000    0.0000    0.0000    0.0000    0.0000    0.0000   -0.0000   -0.0000   -0.0000
    13 PO1    6px        0.0000   -0.0000    0.0000   -0.0000    0.0000   -0.0000    0.0000    0.0000   -0.0000   -0.0000
    14 PO1    7px        0.0000   -0.0000   -0.0000    0.0000    0.0000    0.0000   -0.0000    0.0000    0.0000    0.0000
    15 PO1    8px       -0.0000   -0.0000    0.0000   -0.0000    0.0000   -0.0000   -0.0000    0.0000   -0.0000   -0.0000
    16 PO1    2py       -0.0000   -0.0000   -0.0000   -0.0000    0.0000    0.0000   -0.0008   -0.0000   -0.0006    1.0000
    17 PO1    3py       -0.0000    0.0000   -0.0000   -0.0000   -0.0000    0.0000   -0.0000   -0.0000   -0.0000    0.0000
    18 PO1    4py        0.0000   -0.0000   -0.0000    0.0000    0.0000   -0.0000   -0.0000   -0.0000    0.0000   -0.0000
    19 PO1    5py        0.0000    0.0000    0.0000   -0.0000    0.0000   -0.0000   -0.0000   -0.0000    0.0000   -0.0000
    20 PO1    6py        0.0000    0.0000   -0.0000   -0.0000    0.0000   -0.0000   -0.0000    0.0000    0.0000   -0.0000
    21 PO1    7py        0.0000   -0.0000    0.0000    0.0000    0.0000   -0.0000    0.0000    0.0000   -0.0000    0.0000
    22 PO1    8py        0.0000   -0.0000    0.0000   -0.0000   -0.0000   -0.0000    0.0000    0.0000    0.0000   -0.0000
    23 PO1    2pz        0.0000    0.0000    0.0000    0.0000    0.0011    1.0000   -0.0000    0.0000   -0.0000   -0.0000
    24 PO1    3pz        0.0000   -0.0000    0.0000    0.0000   -0.0000    0.0000   -0.0000    0.0000    0.0000   -0.0000
    25 PO1    4pz        0.0000   -0.0000    0.0000   -0.0000   -0.0000   -0.0000    0.0000    0.0000   -0.0000    0.0000
    26 PO1    5pz        0.0000   -0.0000    0.0000   -0.0000   -0.0000   -0.0000    0.0000    0.0000   -0.0000    0.0000
    27 PO1    6pz        0.0000   -0.0000    0.0000   -0.0000   -0.0000   -0.0000    0.0000   -0.0000    0.0000    0.0000
    28 PO1    7pz        0.0000   -0.0000    0.0000   -0.0000   -0.0000   -0.0000    0.0000    0.0000   -0.0000   -0.0000
    29 PO1    8pz       -0.0000    0.0000   -0.0000    0.0000    0.0000    0.0000    0.0000    0.0000   -0.0000   -0.0000
    30 PO1    3d2-      -0.0000   -0.0000   -0.0000   -0.0000    0.0000    0.0000   -0.0000    0.0000   -0.0000    0.0000
    31 PO1    4d2-       0.0000    0.0000    0.0000    0.0000    0.0000   -0.0000   -0.0000   -0.0000    0.0000   -0.0000
    32 PO1    5d2-      -0.0000   -0.0000   -0.0000   -0.0000   -0.0000    0.0000   -0.0000   -0.0000    0.0000    0.0000
    33 PO1    6d2-       0.0000    0.0000    0.0000    0.0000    0.0000   -0.0000   -0.0000   -0.0000   -0.0000   -0.0000
    34 PO1    7d2-       0.0000   -0.0000    0.0000   -0.0000   -0.0000    0.0000   -0.0000   -0.0000    0.0000    0.0000
    35 PO1    3d1-      -0.0000    0.0000   -0.0000    0.0000   -0.0000   -0.0000   -0.0000   -0.0000   -0.0000    0.0000
    36 PO1    4d1-      -0.0000   -0.0000    0.0000   -0.0000    0.0000    0.0000   -0.0000   -0.0000    0.0000   -0.0000
    37 PO1    5d1-       0.0000    0.0000   -0.0000    0.0000    0.0000   -0.0000   -0.0000   -0.0000   -0.0000    0.0000
    38 PO1    6d1-       0.0000    0.0000   -0.0000    0.0000    0.0000   -0.0000   -0.0000   -0.0000    0.0000   -0.0000
    39 PO1    7d1-       0.0000    0.0000   -0.0000    0.0000    0.0000    0.0000   -0.0000   -0.0000   -0.0000    0.0000
    40 PO1    3d0        0.0000   -0.0000    0.0000    0.0000   -0.0000    0.0000   -0.0000   -0.0000   -0.0000    0.0000
    41 PO1    4d0        0.0000   -0.0000    0.0000   -0.0000   -0.0000   -0.0000    0.0000   -0.0000    0.0000   -0.0000
    42 PO1    5d0        0.0000   -0.0000    0.0000   -0.0000   -0.0000   -0.0000    0.0000   -0.0000    0.0000    0.0000
    43 PO1    6d0        0.0000   -0.0000    0.0000   -0.0000   -0.0000   -0.0000    0.0000   -0.0000    0.0000    0.0000
    44 PO1    7d0        0.0000   -0.0000    0.0000   -0.0000   -0.0000   -0.0000    0.0000   -0.0000   -0.0000   -0.0000
    45 PO1    3d1+       0.0000    0.0000    0.0000    0.0000    0.0000    0.0000    0.0000   -0.0000    0.0000    0.0000
    46 PO1    4d1+       0.0000    0.0000    0.0000    0.0000    0.0000   -0.0000    0.0000   -0.0000   -0.0000   -0.0000
    47 PO1    5d1+       0.0000    0.0000    0.0000    0.0000    0.0000   -0.0000    0.0000   -0.0000    0.0000    0.0000
[...]
 ###############################################################################
 ###############################################################################
 ###############################################################################
 ###############################################################################
 ###                                                                         ###
 ###                                                                         ###
 ###    WARNING: RunFile label RFrInfo                                       ###
 ###    was used       43 times                                              ###
 ###                                                                         ###
 ###                                                                         ###
 ###############################################################################
 ###############################################################################
 ###############################################################################
 ###############################################################################
 ###                                                                         ###
 ###                                                                         ###
 ###    WARNING: RunFile label DKH_Info                                      ###
 ###    was used       43 times                                              ###
 ###                                                                         ###
 ###                                                                         ###
 ###############################################################################
 ###############################################################################
 ###############################################################################
 ###############################################################################
 ###                                                                         ###
 ###                                                                         ###
 ###    WARNING: RunFile label Real_Info                                     ###
 ###    was used       43 times                                              ###
 ###                                                                         ###
 ###                                                                         ###
 ###############################################################################
 ###############################################################################
 ###############################################################################
 ###############################################################################
 ###                                                                         ###
 ###                                                                         ###
 ###    WARNING: RunFile label RICD_Info                                     ###
 ###    was used       43 times                                              ###
 ###                                                                         ###
 ###                                                                         ###
 ###############################################################################
 ###############################################################################
 ###############################################################################
 ###############################################################################
 ###                                                                         ###
 ###                                                                         ###
 ###    WARNING: RunFile label OAM_Center                                    ###
 ###    was used       43 times                                              ###
 ###                                                                         ###
 ###                                                                         ###
 ###############################################################################
 ###############################################################################
 ###############################################################################
 ###############################################################################
 ###                                                                         ###
 ###                                                                         ###
 ###    WARNING: RunFile label rDmp                                          ###
 ###    was used       43 times                                              ###
 ###                                                                         ###
 ###                                                                         ###
 ###############################################################################
 ###############################################################################
 ###############################################################################
 ###############################################################################
 ###                                                                         ###
 ###                                                                         ###
 ###    WARNING: RunFile label rDmp:S                                        ###
 ###    was used       43 times                                              ###
 ###                                                                         ###
 ###                                                                         ###
 ###############################################################################
 ###############################################################################
 ###############################################################################
 ###############################################################################
 ###                                                                         ###
 ###                                                                         ###
 ###    WARNING: RunFile label Center Index                                  ###
 ###    was used       63 times                                              ###
 ###                                                                         ###
 ###                                                                         ###
 ###############################################################################
 ###############################################################################
 ###############################################################################
 ###############################################################################
 ###                                                                         ###
 ###                                                                         ###
 ###    WARNING: RunFile label nBas                                          ###
 ###    was used      156 times                                              ###
 ###                                                                         ###
 ###                                                                         ###
 ###############################################################################
 ###############################################################################
 ###############################################################################
 ###############################################################################
 ###                                                                         ###
 ###                                                                         ###
 ###    WARNING: RunFile label nOrb                                          ###
 ###    was used       64 times                                              ###
 ###                                                                         ###
 ###                                                                         ###
 ###############################################################################
 ###############################################################################
 ###############################################################################
 ###############################################################################
 ###                                                                         ###
 ###                                                                         ###
 ###    WARNING: RunFile label Quad_i                                        ###
 ###    was used       43 times                                              ###
 ###                                                                         ###
 ###                                                                         ###
 ###############################################################################
 ###############################################################################
 ###############################################################################
 ###############################################################################
 ###                                                                         ###
 ###                                                                         ###
 ###    WARNING: RunFile label RFiInfo                                       ###
 ###    was used       43 times                                              ###
 ###                                                                         ###
 ###                                                                         ###
 ###############################################################################
 ###############################################################################
 ###############################################################################
 ###############################################################################
 ###                                                                         ###
 ###                                                                         ###
 ###    WARNING: RunFile label RFlInfo                                       ###
 ###    was used       43 times                                              ###
 ###                                                                         ###
 ###                                                                         ###
 ###############################################################################
 ###############################################################################
 ###############################################################################
 ###############################################################################
 ###                                                                         ###
 ###                                                                         ###
 ###    WARNING: RunFile label Misc                                          ###
 ###    was used       43 times                                              ###
 ###                                                                         ###
 ###                                                                         ###
 ###############################################################################
 ###############################################################################
 ###############################################################################
 ###############################################################################
 ###                                                                         ###
 ###                                                                         ###
 ###    WARNING: RunFile label icDmp                                         ###
 ###    was used       43 times                                              ###
 ###                                                                         ###
 ###                                                                         ###
 ###############################################################################
 ###############################################################################
 ###############################################################################
 ###############################################################################
 ###                                                                         ###
 ###                                                                         ###
 ###    WARNING: RunFile label Symmetry Info                                 ###
 ###    was used       44 times                                              ###
 ###                                                                         ###
 ###                                                                         ###
 ###############################################################################
 ###############################################################################
 ###############################################################################
 ###############################################################################
 ###                                                                         ###
 ###                                                                         ###
 ###    WARNING: RunFile label Sizes                                         ###
 ###    was used       43 times                                              ###
 ###                                                                         ###
 ###                                                                         ###
 ###############################################################################
 ###############################################################################
 ###############################################################################
 ###############################################################################
 ###                                                                         ###
 ###                                                                         ###
 ###    WARNING: RunFile label Logical_Info                                  ###
 ###    was used       43 times                                              ###
 ###                                                                         ###
 ###                                                                         ###
 ###############################################################################
 ###############################################################################
 ###############################################################################
 ###############################################################################
 ###                                                                         ###
 ###                                                                         ###
 ###    WARNING: RunFile label iAOtSO                                        ###
 ###    was used       43 times                                              ###
 ###                                                                         ###
 ###                                                                         ###
 ###############################################################################
 ###############################################################################
 ###############################################################################
 ###############################################################################
 ###                                                                         ###
 ###                                                                         ###
 ###    WARNING: RunFile label iSOInf                                        ###
 ###    was used       43 times                                              ###
 ###                                                                         ###
 ###                                                                         ###
 ###############################################################################
 ###############################################################################
 ###############################################################################
 ###############################################################################
 ###                                                                         ###
 ###                                                                         ###
 ###    WARNING: RunFile label iDmp                                          ###
 ###    was used       43 times                                              ###
 ###                                                                         ###
 ###                                                                         ###
 ###############################################################################
 ###############################################################################
 ###############################################################################
 ###############################################################################
 ###                                                                         ###
 ###                                                                         ###
 ###    WARNING: RunFile label iDmp:S                                        ###
 ###    was used       43 times                                              ###
 ###                                                                         ###
 ###                                                                         ###
 ###############################################################################
 ###############################################################################
--- Stop Module: rasscf at Mon Nov 10 15:25:08 2025 /rc=_RC_ALL_IS_WELL_ ---
*** files: Po2casscf.LprOrb Po2casscf.rasscf.molden.7 Po2casscf.rasscf.molden.10 Po2casscf.rasscf.molden.1 Po2casscf.rasscf.molden.9 Po2casscf.rasscf.molden.4
           Po2casscf.rasscf.molden.3 Po2casscf.rasscf.molden.15 Po2casscf.rasscf.molden.19 Po2casscf.rasscf.molden.17 Po2casscf.rasscf.molden.11 Po2casscf.rasscf.molden.21
           Po2casscf.rasscf.molden.5 Po2casscf.rasscf.molden.6 Po2casscf.rasscf.molden Po2casscf.rasscf.molden.18 Po2casscf.rasscf.molden.12 Po2casscf.rasscf.molden.2
           Po2casscf.rasscf.molden.16 Po2casscf.rasscf.molden.20 Po2casscf.rasscf.molden.13 Po2casscf.rasscf.molden.8 Po2casscf.rasscf.molden.14 Po2casscf.LoProp.molden
           Po2casscf.RasOrb.3 Po2casscf.RasOrb.13 Po2casscf.RasOrb.2 Po2casscf.RasOrb.7 Po2casscf.RasOrb.19 Po2casscf.RasOrb.5 Po2casscf.RasOrb.14 Po2casscf.RasOrb.4
           Po2casscf.RasOrb.12 Po2casscf.RasOrb.11 Po2casscf.RasOrb.20 Po2casscf.RasOrb.21 Po2casscf.RasOrb.10 Po2casscf.RasOrb.1 Po2casscf.RasOrb.6 Po2casscf.RasOrb.16
           Po2casscf.RasOrb.9 Po2casscf.RasOrb Po2casscf.RasOrb.15 Po2casscf.RasOrb.8 Po2casscf.RasOrb.17 Po2casscf.RasOrb.18 Po2casscf.rasscf.h5 Po2casscf.SpdOrb.7
           Po2casscf.SpdOrb.8 Po2casscf.SpdOrb.4 Po2casscf.SpdOrb.20 Po2casscf.SpdOrb.3 Po2casscf.SpdOrb.19 Po2casscf.SpdOrb.16 Po2casscf.SpdOrb.10 Po2casscf.SpdOrb.2
           Po2casscf.SpdOrb.1 Po2casscf.SpdOrb.18 Po2casscf.SpdOrb.17 Po2casscf.SpdOrb.9 Po2casscf.SpdOrb.14 Po2casscf.SpdOrb.21 Po2casscf.SpdOrb.5 Po2casscf.SpdOrb.12
           Po2casscf.SpdOrb.13 Po2casscf.SpdOrb.15 Po2casscf.SpdOrb.6 Po2casscf.SpdOrb.11 xmldump
    saved to directory /dodrio/scratch/projects/starting_2025_097/speedup_mscaspt2/SO_CASSI_test/casscf/singlet/Po2casscf
--- Module rasscf spent 3 minutes 54 seconds ---

.##################.
.# Happy landing! #.
.##################.

    Timing: Wall=424.05 User=387.82 System=21.46
