   This run of MOLCAS is using the pymolcas driver

                             OPE
                             OPE          NMOL  CASOP  ENMOLC A   SO
                 OPE        NMOLC        AS  OP EN  MO LC     AS  OP
                OPENM       OL CA        SO  PE NM  OL CA     SOP EN
                OP EN      MO   LC       AS  OP ENMOL  CASO   PENMOL
                OP  EN     MO   LC       AS  OP EN     MO     LC ASO
               OP   E  NMOL  C  AS       OP  EN MO     LC     AS  OP
               OP  E   NMO   LC AS        OPEN  MO     LCASOP EN   M
               O  PEN   MO  LCA  SO
            OPE   NMO   L   CAS    OP
        OPENMOL  CASOP     ENMOL   CASOPE
     OPENMOLCA   SOPENMOLCASOPEN   MOLCASOPE
    OPENMOLCAS   OP           EN   MOL    CAS
    OPENMOLCAS       OP  ENM        O     LCA
    OPENMOLCAS    OPEN  MOLCASO     P  E  NMO
    OPENMOLCAS     OP               E  N  MOL
    OPENMOLCA   SO           PENM   O  L  CAS    OPEN    MO    LCAS
    OPENMOLCA   SOP           ENM   O  L  CAS   OP  EN  MOLC  AS   O
    OPENMOLCA   SOPE           NM      O  LCA   S      OP  EN MO
    OPENMOLC                AS         O  PEN   M      OL  CA  SOPE
    OPENMO        LCASOPE  NMOL        C  ASO   P      ENMOLC     AS
    OPE     NMO      LCA  SO     P     E   NM   OL  CA SO  PE N   MO
          OPENMOLCA            SOPE   NMO        LCAS  O    P  ENMO
     OPENMOLCASOPENMOLCASOPENMOLCASOPENMOLCA
        OPENMOLCASOPENMOLCASOPENMOLCASOPE
            OPENMOLCASOPENMOLCASOPENM
               OPENMOLCASOPENMOLCA        version: v25.06 ?
                   OPENMOLCASO
                       OPE                tag:

 OpenMolcas is free software; you can redistribute it and/or modify it
 under the terms of the GNU Lesser General Public License version 2.1.
 OpenMolcas is distributed in the hope that it will be useful, but it
 is provided "as is" and without any express or implied warranties.
 For more details see the full text of the license in the file
 LICENSE or in <http://www.gnu.org/licenses/>.

                 Copyright (C) The OpenMolcas Authors
           For the author list and the recommended citation,
                   consult the file CONTRIBUTORS.md

           *************************************************
           * pymolcas version py2.29                       *
           *   build 637753c454b0e8fef9459a9b878b37a5      *
           *   (after the EMIL interpreter by V. Veryazov) *
           *************************************************

configuration info
------------------
Host name: node5385.dodrio.os (Linux)
C Compiler ID: IntelLLVM
C flags: -O2 -march=core-avx2 -fp-model precise -std=gnu99 -qopenmp
Fortran Compiler ID: Intel
Fortran flags: -O2 -march=core-avx2 -fp-model precise  -fpp -i8 -heap-arrays -qopenmp
Definitions: _MOLCAS_;_I8_;_LINUX_
Parallel: OFF (GA=OFF)


   ------------------------------------------------------------------------------------------------------------------
  |
  |           Project: root1
  |    Submitted from: /dodrio/scratch/projects/starting_2025_097/MSCASPT2_parallel/rootcombparsl/quintet/root1
  |      Scratch area: /tmp/parsl_582461_1774787888_root1/root1.584800
  |   Save outputs to: /dodrio/scratch/projects/starting_2025_097/MSCASPT2_parallel/rootcombparsl/quintet/root1/root1
  |            Molcas: /readonly/dodrio/apps/RHEL9/zen3-ib/software/OpenMolcas/25.06-iomkl-2023a-DMRG-no-MPI
  |
  | Scratch area is empty
  |
  |    MOLCAS_DRIVER = /readonly/dodrio/apps/RHEL9/zen3-ib/software/OpenMolcas/25.06-iomkl-2023a-DMRG-no-MPI/pymolcas
  |    MOLCAS_MOLDEN = YES
  |    MOLCAS_NPROCS = 1
  |     MOLCAS_PRINT = verbose
  |    MOLCAS_SOURCE = /readonly/dodrio/apps/RHEL9/zen3-ib/software/OpenMolcas/25.06-iomkl-2023a-DMRG-no-MPI
  | MOLCAS_STRUCTURE = 0
  |
   ------------------------------------------------------------------------------------------------------------------

++ ---------   Input file   ---------

&GATEWAY
Title
Po2 Root 1/70 spin=5 sym=1
COORD = /dodrio/scratch/projects/starting_2025_097/MSCASPT2_parallel/rootcombparsl/quintet/root1/molecule.xyz
GROUP = NoSym
BASIS = ANO-RCC-VQZP

>>> COPY /dodrio/scratch/projects/starting_2025_097/MSCASPT2_parallel/rootcombparsl/singlet/rasscf/seward.RunFile $WorkDir/$Project.RunFile

>>> COPY /dodrio/scratch/projects/starting_2025_097/MSCASPT2_parallel/rootcombparsl/singlet/rasscf/seward.OneInt $WorkDir/$Project.OneInt

>>> COPY /dodrio/scratch/projects/starting_2025_097/MSCASPT2_parallel/rootcombparsl/singlet/rasscf/seward.SymInfo $WorkDir/$Project.SymInfo

>>> COPY /dodrio/scratch/projects/starting_2025_097/MSCASPT2_parallel/rootcombparsl/singlet/rasscf/seward.NqGrid $WorkDir/$Project.NqGrid

>>> COPY /dodrio/scratch/projects/starting_2025_097/MSCASPT2_parallel/rootcombparsl/singlet/rasscf/seward.ChVec1 $WorkDir/$Project.ChVec1

>>> COPY /dodrio/scratch/projects/starting_2025_097/MSCASPT2_parallel/rootcombparsl/singlet/rasscf/seward.ChSel1 $WorkDir/$Project.ChSel1

>>> COPY /dodrio/scratch/projects/starting_2025_097/MSCASPT2_parallel/rootcombparsl/singlet/rasscf/seward.ChRed $WorkDir/$Project.ChRed

>>> COPY /dodrio/scratch/projects/starting_2025_097/MSCASPT2_parallel/rootcombparsl/singlet/rasscf/seward.ChDiag $WorkDir/$Project.ChDiag

>>> COPY /dodrio/scratch/projects/starting_2025_097/MSCASPT2_parallel/rootcombparsl/singlet/rasscf/seward.ChMap $WorkDir/$Project.ChMap

>>> COPY /dodrio/scratch/projects/starting_2025_097/MSCASPT2_parallel/rootcombparsl/singlet/rasscf/seward.ChRst $WorkDir/$Project.ChRst

>>> COPY /dodrio/scratch/projects/starting_2025_097/MSCASPT2_parallel/rootcombparsl/quintet/rasscf/quintet.JobIph $WorkDir/$Project.JobIph

&CASPT2
MAXITER = 300
Frozen = 78
Multistate = all
Imaginary Shift = 0.25
only = 1

-- ----------------------------------

--- Start Module: gateway at Sun Mar 29 14:38:10 2026 ---
 
()()()()()()()()()()()()()()()()()()()()()()()()()()()()()()()()()()()()()()()()()()()()()()()()()()

                                              &GATEWAY

                                   only a single process is used
                        available to each process: 20 GB of memory, 1 thread
                                            pid: 584841
()()()()()()()()()()()()()()()()()()()()()()()()()()()()()()()()()()()()()()()()()()()()()()()()()()
 
 
 
 Basis Set     1 Label: PO.ANO-RCC-VQZP
 Basis set is read from library:basis_library 
 Basis Set Reference(s):
     B.O. Roos, R. Lindh, P.-A. Malmqvist, V. Veryazov, P.-O. Widmark. J. Phys. Chem. A 108 (2004) 2851-2858. doi:10.1021/jp031064+
     POLONIUM (25s,22p,16d,12f,4g) -> [11s,10p,9d,6f,4g]
 
 
 
               ****************************************************************************************
               *                                                                                      *
               *                                  Po2 Root 1/70 spin                                  *
               *                                        5 sym                                         *
               *                                          1                                           *
               *                                                                                      *
               ****************************************************************************************
 
  Weights used for alignment and distance                     
  mat. size =     2x    1
      208.9824308000000030
      208.9824308000000030
 
 
++    Symmetry information:
      ---------------------
 
                    Character Table for C1 
 
                             E  
                    a        1  x, y, xy, Rz, z, xz, Ry, yz, Rx, I
--
 
 
++    Basis set information:
      ----------------------
 
 
      Basis set label: PO.ANO-RCC...9S8P6D4F3G.
 
      Electronic valence basis set:
      ------------------
      Associated Effective Charge  84.000000 au
      Associated Actual Charge     84.000000 au
      Nuclear Model: Point charge
 
      Shell  nPrim  nBasis  Cartesian Spherical Contaminant
         s      25       9        X                  
         p      22       8        X                  
         d      16       6                 X         
         f      12       4                 X         
         g       4       3                 X         
 
       Label   Cartesian Coordinates / bohr
 
 PO1               -4.4880995490        0.0000000000        0.0000000000
 PO2                4.4880995490        0.0000000000        0.0000000000
--
 
 
++    Molecular structure info:
      -------------------------
 
                    ************************************************ 
                    **** Cartesian Coordinates / bohr, angstrom **** 
                    ************************************************ 
 
     Center  Label                x              y              z                     x              y              z
        1      PO1             -4.488100       0.000000       0.000000             -2.375000       0.000000       0.000000
        2      PO2              4.488100       0.000000       0.000000              2.375000       0.000000       0.000000
--
 
 
++    Isotope specification:
      ----------------------
 
 Center
 Type   Z    A    mass (Da)
 --------------------------
    1  84  209   208.982431
--
 
 
++    Rigid rotor info:
      -----------------
 
 
                    Total mass (a) : 417.96486
 
                    Center of mass 
                          X          Y   
                       0.00000    0.00000    0.00000
 
                    Reference system based on center of mass
                    Coordinates and Masses of Atoms, in au and A
                          X          Y          Z        Mass
                      -4.48810    0.00000    0.00000  208.98243
                       4.48810    0.00000    0.00000  208.98243
 
                    The Moment of Inertia Tensor / au
                                     X          Y        Z     
                    X            -7.8587E-10
                    Y             0.0000E+00 1.5347E+07
                    Z             0.0000E+00 0.0000E+00 1.5347E+07
 
 
  Pax                                                         
  mat. size =     3x    3
        1.0000000000000000      0.0000000000000000      0.0000000000000000
        0.0000000000000000      1.0000000000000000      0.0000000000000000
        0.0000000000000000      0.0000000000000000      1.0000000000000000
                    The Principal Axes and Moments of Inertia (au)
                    Eigenvalues : 1.5347E+07 1.5347E+07-9.3132E-10
                                     X'         Y'       Z'    
                    Eigenvectors:
                    X             0.0000E+00 0.0000E+00 1.0000E+00
                    Y             1.0000E+00 0.0000E+00 0.0000E+00
                    Z             0.0000E+00 1.0000E+00 0.0000E+00
 
                    The Rotational Constants
                            (cm-1)            (GHz)
                              0.007            0.214
                              0.007            0.214
 
 
                    *******************************************
                    *                                         *
                    * R I G I D - R O T O R   A N A L Y S I S *
                    *                                         *
                    *******************************************
 
                    j(Max):  5
 
                    Rotor Type: Linear Rotor
                    Asymmetry parameter: -1.000
                    Prolate = -1
                    Oblate  =  1
 
 
                    Rotational energies / cm-1
 
                    E(J= 0) =    0.000
 
                    E(J= 1) =    0.014
 
                    E(J= 2) =    0.043
 
                    E(J= 3) =    0.086
 
                    E(J= 4) =    0.143
 
                    E(J= 5) =    0.215
--
 
 
++    Primitive basis info:
      ---------------------
 
 
                    *****************************************************
                    ******** Primitive Basis Functions (Valence) ********
                    *****************************************************
 
 
 Basis set:PO.ANO-RCC...9S8P6D4F3G.                                                        
 
                  Type         
                   s
           No.      Exponent    Contraction Coefficients
            1  5.449886210E+07   0.001372  -0.000545   0.000263  -0.000134   0.000061  -0.000022   0.000029  -0.000036   0.000047
            2  1.309612090E+07   0.001655  -0.000659   0.000318  -0.000162   0.000074  -0.000027   0.000035  -0.000044   0.000057
            3  3.878386940E+06   0.004355  -0.001738   0.000840  -0.000426   0.000196  -0.000071   0.000093  -0.000115   0.000151
            4  1.248126680E+06   0.007628  -0.003059   0.001479  -0.000751   0.000345  -0.000126   0.000164  -0.000202   0.000266
            5  4.308857500E+05   0.015370  -0.006206   0.003004  -0.001526   0.000701  -0.000256   0.000333  -0.000410   0.000543
            6  1.569159280E+05   0.028094  -0.011488   0.005573  -0.002832   0.001301  -0.000475   0.000619  -0.000764   0.001002
            7  5.987864890E+04   0.052832  -0.022033   0.010725  -0.005453   0.002507  -0.000915   0.001189  -0.001464   0.001951
            8  2.371398000E+04   0.096445  -0.041611   0.020368  -0.010378   0.004770  -0.001740   0.002273  -0.002810   0.003650
            9  9.664090770E+03   0.172969  -0.078960   0.039057  -0.019927   0.009174  -0.003352   0.004342  -0.005336   0.007211
           10  4.042681300E+03   0.276518  -0.139525   0.070244  -0.036074   0.016600  -0.006054   0.007948  -0.009858   0.012525
           11  1.740536270E+03   0.332765  -0.195104   0.101327  -0.052237   0.024157  -0.008846   0.011337  -0.013831   0.019669
           12  7.714290540E+02   0.207520  -0.100108   0.048465  -0.024974   0.011335  -0.004077   0.005828  -0.007626   0.006124
           13  3.509046200E+02   0.033460   0.324239  -0.257708   0.149371  -0.070445   0.025710  -0.035082   0.044705  -0.048369
           14  1.662260150E+02   0.001274   0.597476  -0.633726   0.391200  -0.190493   0.070723  -0.088761   0.107134  -0.173190
           15  8.123101390E+01  -0.001023   0.229632  -0.120435   0.073075  -0.031957   0.010576  -0.023102   0.035630   0.029770
           16  4.069936800E+01   0.000845   0.011176   0.875754  -1.007843   0.564316  -0.212203   0.305398  -0.405577   0.391931
           17  2.034905250E+01  -0.000639   0.000346   0.454578  -0.545544   0.337843  -0.136631   0.135306  -0.128028   0.494206
           18  1.004866100E+01   0.000415  -0.000070   0.016906   1.039372  -0.968782   0.419716  -0.512671   0.631755  -1.615868
           19  4.919576700E+00  -0.000227  -0.000155   0.006194   0.569226  -0.766253   0.346614  -0.644020   0.976028  -0.251014
           20  2.213117740E+00   0.000110   0.000103  -0.002707   0.008495   1.057822  -0.667287   1.621686  -3.134957   4.251726
           21  9.608370900E-01  -0.000051  -0.000045   0.001105   0.006564   0.592168  -0.606242  -0.086453   2.470886  -6.201483
           22  3.725348200E-01   0.000022   0.000021  -0.000495  -0.002588  -0.012320   0.727524  -1.767929   0.370391   5.144180
           23  1.318544300E-01  -0.000011  -0.000011   0.000249   0.001277   0.013187   0.695013   0.798028  -2.324753  -2.920173
           24  5.274177000E-02   0.000006   0.000006  -0.000128  -0.000669  -0.006818  -0.006153   0.537905   1.502491   0.398571
           25  2.109670000E-02  -0.000002  -0.000002   0.000038   0.000199   0.002057   0.016983   0.118563   0.268138   0.689651
 
                  Type         
                   p
           No.      Exponent    Contraction Coefficients
           26  2.004599670E+07   0.000036  -0.000019   0.000009  -0.000004   0.000001  -0.000002   0.000003  -0.000003
           27  3.786356900E+06   0.000092  -0.000048   0.000024  -0.000010   0.000003  -0.000005   0.000007  -0.000008
           28  8.903308880E+05   0.000265  -0.000138   0.000070  -0.000030   0.000009  -0.000013   0.000020  -0.000023
           29  2.404348700E+05   0.000719  -0.000376   0.000191  -0.000083   0.000025  -0.000036   0.000055  -0.000063
           30  7.229226460E+04   0.002009  -0.001055   0.000535  -0.000232   0.000069  -0.000103   0.000155  -0.000170
           31  2.385278250E+04   0.005725  -0.003024   0.001537  -0.000669   0.000198  -0.000293   0.000445  -0.000519
           32  8.590617060E+03   0.016546  -0.008837   0.004504  -0.001955   0.000580  -0.000868   0.001308  -0.001392
           33  3.360337110E+03   0.046986  -0.025510   0.013058  -0.005696   0.001686  -0.002490   0.003781  -0.004538
           34  1.413273460E+03   0.122805  -0.068857   0.035515  -0.015439   0.004585  -0.006890   0.010367  -0.010665
           35  6.301800150E+02   0.263698  -0.154584   0.080705  -0.035431   0.010488  -0.015402   0.023484  -0.029510
           36  2.941769660E+02   0.386429  -0.236366   0.124663  -0.054223   0.016158  -0.024657   0.036833  -0.032648
           37  1.421068570E+02   0.289230  -0.087631   0.029034  -0.011884   0.003254  -0.003229   0.006016  -0.029188
           38  6.887919950E+01   0.070671   0.405405  -0.329155   0.162092  -0.048443   0.068662  -0.108601   0.183972
           39  3.473946720E+01   0.000362   0.555391  -0.465730   0.219227  -0.067174   0.110209  -0.161367   0.050845
           40  1.739252360E+01   0.000926   0.167515   0.256050  -0.178579   0.059798  -0.111742   0.164776   0.062986
           41  8.586781540E+00  -0.000575   0.007511   0.732992  -0.583333   0.185980  -0.254805   0.444452  -1.095417
           42  4.183036740E+00   0.000242   0.000664   0.249760   0.033435  -0.018440  -0.021540  -0.083020   1.306629
           43  1.882156340E+00  -0.000099  -0.000261   0.008476   0.778081  -0.366193   0.844081  -1.536784   0.226902
           44  8.255012700E-01   0.000042   0.000039   0.001165   0.353880  -0.091689  -0.484751   1.896833  -1.532271
           45  2.553136800E-01  -0.000013  -0.000015  -0.000321   0.015645   0.643100  -0.860964  -0.617526   1.973070
           46  8.323531000E-02   0.000006   0.000008   0.000133  -0.001016   0.487752   0.696574  -0.737265  -2.224299
           47  3.329412000E-02  -0.000002  -0.000003  -0.000054   0.000445   0.032674   0.420368   1.047820   1.396939
 
                  Type         
                   d
           No.      Exponent    Contraction Coefficients
           48  9.664090770E+03   0.000382  -0.000205   0.000076  -0.000051   0.000083  -0.000105
           49  4.042681300E+03   0.001085  -0.000580   0.000212  -0.000143   0.000233  -0.000205
           50  1.740536270E+03   0.005379  -0.002910   0.001087  -0.000723   0.001176  -0.001514
           51  7.714290540E+02   0.022329  -0.012107   0.004459  -0.003003   0.004891  -0.004918
           52  3.509046200E+02   0.080636  -0.044594   0.016679  -0.011135   0.018169  -0.022251
           53  1.662260150E+02   0.215630  -0.120756   0.044800  -0.030210   0.049418  -0.051084
           54  8.123101390E+01   0.380175  -0.209202   0.078452  -0.052088   0.084100  -0.106232
           55  4.069936800E+01   0.361781  -0.127098   0.038199  -0.025173   0.036225  -0.001483
           56  2.034905250E+01   0.137645   0.264650  -0.129018   0.094536  -0.170551   0.149925
           57  1.004866100E+01   0.012690   0.536895  -0.260948   0.174847  -0.273288   0.423387
           58  4.919576700E+00   0.001035   0.308465  -0.025794   0.002722   0.066539  -0.496183
           59  2.213117740E+00  -0.000252   0.042871   0.455881  -0.464563   0.989590  -0.712257
           60  9.608370900E-01   0.000131  -0.001050   0.523945  -0.174190  -0.771632   1.588631
           61  3.725348200E-01  -0.000060   0.000571   0.177569   0.626021  -0.550505  -1.288994
           62  1.490139200E-01   0.000029  -0.000287   0.000864   0.442169   0.790498   0.151969
           63  5.960556000E-02  -0.000010   0.000090   0.003931   0.068945   0.186975   0.675099
 
                  Type         
                   f
           No.      Exponent    Contraction Coefficients
           64  6.301800150E+02   0.001210  -0.000416   0.000276  -0.000573
           65  2.941769660E+02   0.004603  -0.001622   0.000979  -0.000203
           66  1.421068570E+02   0.024199  -0.008382   0.005495  -0.009862
           67  6.887919950E+01   0.080867  -0.028275   0.017417  -0.012699
           68  3.473946720E+01   0.200382  -0.071077   0.047482  -0.084365
           69  1.739252360E+01   0.341928  -0.126936   0.086663  -0.089887
           70  8.586781540E+00   0.366591  -0.125620   0.096615  -0.257800
           71  4.183036740E+00   0.229261   0.031815  -0.055658   0.374810
           72  1.882156340E+00   0.064227   0.544244  -0.530719   0.660859
           73  7.528625300E-01   0.002061   0.478125   0.084904  -1.139037
           74  3.011450100E-01   0.000674   0.097675   0.722391   0.306493
           75  1.204580000E-01  -0.000239   0.029294   0.242334   0.533608
 
                  Type         
                   g
           No.      Exponent    Contraction Coefficients
           76  1.767416000E+00   0.666694  -0.763738   0.753194
           77  7.069664000E-01   0.385204   0.490461  -1.332616
           78  2.827865000E-01   0.146884   0.576575   0.926927
           79  1.131146000E-01   0.004997   0.075172   0.192296
 
  Number of primitives                                   582
  Number of basis functions                              236
 
--
 
 
++    SO/AO info:
      -----------
 
                    **************************************************
                    ********** Petite list Basis Functions ***********
                    **************************************************
 
 
           Basis functions generated by E  
 
 Basis Label        Type   Center
    1  PO1           1s       1
    2  PO1           2s       1
    3  PO1           3s       1
    4  PO1           4s       1
    5  PO1           5s       1
    6  PO1           6s       1
    7  PO1           7s       1
    8  PO1           8s       1
    9  PO1           9s       1
   10  PO1           2px      1
   11  PO1           3px      1
   12  PO1           4px      1
   13  PO1           5px      1
   14  PO1           6px      1
   15  PO1           7px      1
   16  PO1           8px      1
   17  PO1           9px      1
   18  PO1           2py      1
   19  PO1           3py      1
   20  PO1           4py      1
   21  PO1           5py      1
   22  PO1           6py      1
   23  PO1           7py      1
   24  PO1           8py      1
   25  PO1           9py      1
   26  PO1           2pz      1
   27  PO1           3pz      1
   28  PO1           4pz      1
   29  PO1           5pz      1
   30  PO1           6pz      1
   31  PO1           7pz      1
   32  PO1           8pz      1
   33  PO1           9pz      1
   34  PO1           3d2-     1
   35  PO1           4d2-     1
   36  PO1           5d2-     1
   37  PO1           6d2-     1
   38  PO1           7d2-     1
   39  PO1           8d2-     1
   40  PO1           3d1-     1
   41  PO1           4d1-     1
   42  PO1           5d1-     1
   43  PO1           6d1-     1
   44  PO1           7d1-     1
   45  PO1           8d1-     1
   46  PO1           3d0      1
   47  PO1           4d0      1
   48  PO1           5d0      1
   49  PO1           6d0      1
   50  PO1           7d0      1
   51  PO1           8d0      1
   52  PO1           3d1+     1
   53  PO1           4d1+     1
   54  PO1           5d1+     1
   55  PO1           6d1+     1
   56  PO1           7d1+     1
   57  PO1           8d1+     1
   58  PO1           3d2+     1
   59  PO1           4d2+     1
   60  PO1           5d2+     1
   61  PO1           6d2+     1
   62  PO1           7d2+     1
   63  PO1           8d2+     1
   64  PO1           4f3-     1
   65  PO1           5f3-     1
   66  PO1           6f3-     1
   67  PO1           7f3-     1
   68  PO1           4f2-     1
   69  PO1           5f2-     1
   70  PO1           6f2-     1
   71  PO1           7f2-     1
   72  PO1           4f1-     1
   73  PO1           5f1-     1
   74  PO1           6f1-     1
   75  PO1           7f1-     1
   76  PO1           4f0      1
   77  PO1           5f0      1
   78  PO1           6f0      1
   79  PO1           7f0      1
   80  PO1           4f1+     1
   81  PO1           5f1+     1
   82  PO1           6f1+     1
   83  PO1           7f1+     1
   84  PO1           4f2+     1
   85  PO1           5f2+     1
   86  PO1           6f2+     1
   87  PO1           7f2+     1
   88  PO1           4f3+     1
   89  PO1           5f3+     1
   90  PO1           6f3+     1
   91  PO1           7f3+     1
   92  PO1           5g4-     1
   93  PO1           6g4-     1
   94  PO1           7g4-     1
   95  PO1           5g3-     1
   96  PO1           6g3-     1
   97  PO1           7g3-     1
   98  PO1           5g2-     1
   99  PO1           6g2-     1
  100  PO1           7g2-     1
  101  PO1           5g1-     1
  102  PO1           6g1-     1
  103  PO1           7g1-     1
  104  PO1           5g0      1
  105  PO1           6g0      1
  106  PO1           7g0      1
  107  PO1           5g1+     1
  108  PO1           6g1+     1
  109  PO1           7g1+     1
  110  PO1           5g2+     1
  111  PO1           6g2+     1
  112  PO1           7g2+     1
  113  PO1           5g3+     1
  114  PO1           6g3+     1
  115  PO1           7g3+     1
  116  PO1           5g4+     1
  117  PO1           6g4+     1
  118  PO1           7g4+     1
  119  PO2           1s       2
  120  PO2           2s       2
  121  PO2           3s       2
  122  PO2           4s       2
  123  PO2           5s       2
  124  PO2           6s       2
  125  PO2           7s       2
  126  PO2           8s       2
  127  PO2           9s       2
  128  PO2           2px      2
  129  PO2           3px      2
  130  PO2           4px      2
  131  PO2           5px      2
  132  PO2           6px      2
  133  PO2           7px      2
  134  PO2           8px      2
  135  PO2           9px      2
  136  PO2           2py      2
  137  PO2           3py      2
  138  PO2           4py      2
  139  PO2           5py      2
  140  PO2           6py      2
  141  PO2           7py      2
  142  PO2           8py      2
  143  PO2           9py      2
  144  PO2           2pz      2
  145  PO2           3pz      2
  146  PO2           4pz      2
  147  PO2           5pz      2
  148  PO2           6pz      2
  149  PO2           7pz      2
  150  PO2           8pz      2
  151  PO2           9pz      2
  152  PO2           3d2-     2
  153  PO2           4d2-     2
  154  PO2           5d2-     2
  155  PO2           6d2-     2
  156  PO2           7d2-     2
  157  PO2           8d2-     2
  158  PO2           3d1-     2
  159  PO2           4d1-     2
  160  PO2           5d1-     2
  161  PO2           6d1-     2
  162  PO2           7d1-     2
  163  PO2           8d1-     2
  164  PO2           3d0      2
  165  PO2           4d0      2
  166  PO2           5d0      2
  167  PO2           6d0      2
  168  PO2           7d0      2
  169  PO2           8d0      2
  170  PO2           3d1+     2
  171  PO2           4d1+     2
  172  PO2           5d1+     2
  173  PO2           6d1+     2
  174  PO2           7d1+     2
  175  PO2           8d1+     2
  176  PO2           3d2+     2
  177  PO2           4d2+     2
  178  PO2           5d2+     2
  179  PO2           6d2+     2
  180  PO2           7d2+     2
  181  PO2           8d2+     2
  182  PO2           4f3-     2
  183  PO2           5f3-     2
  184  PO2           6f3-     2
  185  PO2           7f3-     2
  186  PO2           4f2-     2
  187  PO2           5f2-     2
  188  PO2           6f2-     2
  189  PO2           7f2-     2
  190  PO2           4f1-     2
  191  PO2           5f1-     2
  192  PO2           6f1-     2
  193  PO2           7f1-     2
  194  PO2           4f0      2
  195  PO2           5f0      2
  196  PO2           6f0      2
  197  PO2           7f0      2
  198  PO2           4f1+     2
  199  PO2           5f1+     2
  200  PO2           6f1+     2
  201  PO2           7f1+     2
  202  PO2           4f2+     2
  203  PO2           5f2+     2
  204  PO2           6f2+     2
  205  PO2           7f2+     2
  206  PO2           4f3+     2
  207  PO2           5f3+     2
  208  PO2           6f3+     2
  209  PO2           7f3+     2
  210  PO2           5g4-     2
  211  PO2           6g4-     2
  212  PO2           7g4-     2
  213  PO2           5g3-     2
  214  PO2           6g3-     2
  215  PO2           7g3-     2
  216  PO2           5g2-     2
  217  PO2           6g2-     2
  218  PO2           7g2-     2
  219  PO2           5g1-     2
  220  PO2           6g1-     2
  221  PO2           7g1-     2
  222  PO2           5g0      2
  223  PO2           6g0      2
  224  PO2           7g0      2
  225  PO2           5g1+     2
  226  PO2           6g1+     2
  227  PO2           7g1+     2
  228  PO2           5g2+     2
  229  PO2           6g2+     2
  230  PO2           7g2+     2
  231  PO2           5g3+     2
  232  PO2           6g3+     2
  233  PO2           7g3+     2
  234  PO2           5g4+     2
  235  PO2           6g4+     2
  236  PO2           7g4+     2
 
      Basis set specifications :
      Symmetry species        a  
      Basis functions         236
--
 
 
            Nuclear Potential Energy            786.07882055 au
 
--- Stop Module: gateway at Sun Mar 29 14:38:14 2026 /rc=_RC_ALL_IS_WELL_ ---
*** files: xmldump
    saved to directory /dodrio/scratch/projects/starting_2025_097/MSCASPT2_parallel/rootcombparsl/quintet/root1/root1
--- Module gateway spent 4 seconds ---

>>> COPY /dodrio/scratch/projects/starting_2025_097/MSCASPT2_parallel/rootcombparsl/singlet/rasscf/seward.RunFile /tmp/parsl_582461_1774787888_root1/root1.584800/root1.RunFile

>>> COPY /dodrio/scratch/projects/starting_2025_097/MSCASPT2_parallel/rootcombparsl/singlet/rasscf/seward.OneInt /tmp/parsl_582461_1774787888_root1/root1.584800/root1.OneInt

>>> COPY /dodrio/scratch/projects/starting_2025_097/MSCASPT2_parallel/rootcombparsl/singlet/rasscf/seward.SymInfo /tmp/parsl_582461_1774787888_root1/root1.584800/root1.SymInfo

>>> COPY /dodrio/scratch/projects/starting_2025_097/MSCASPT2_parallel/rootcombparsl/singlet/rasscf/seward.NqGrid /tmp/parsl_582461_1774787888_root1/root1.584800/root1.NqGrid

>>> COPY /dodrio/scratch/projects/starting_2025_097/MSCASPT2_parallel/rootcombparsl/singlet/rasscf/seward.ChVec1 /tmp/parsl_582461_1774787888_root1/root1.584800/root1.ChVec1

>>> COPY /dodrio/scratch/projects/starting_2025_097/MSCASPT2_parallel/rootcombparsl/singlet/rasscf/seward.ChSel1 /tmp/parsl_582461_1774787888_root1/root1.584800/root1.ChSel1

>>> COPY /dodrio/scratch/projects/starting_2025_097/MSCASPT2_parallel/rootcombparsl/singlet/rasscf/seward.ChRed /tmp/parsl_582461_1774787888_root1/root1.584800/root1.ChRed

>>> COPY /dodrio/scratch/projects/starting_2025_097/MSCASPT2_parallel/rootcombparsl/singlet/rasscf/seward.ChDiag /tmp/parsl_582461_1774787888_root1/root1.584800/root1.ChDiag

>>> COPY /dodrio/scratch/projects/starting_2025_097/MSCASPT2_parallel/rootcombparsl/singlet/rasscf/seward.ChMap /tmp/parsl_582461_1774787888_root1/root1.584800/root1.ChMap

>>> COPY /dodrio/scratch/projects/starting_2025_097/MSCASPT2_parallel/rootcombparsl/singlet/rasscf/seward.ChRst /tmp/parsl_582461_1774787888_root1/root1.584800/root1.ChRst

>>> COPY /dodrio/scratch/projects/starting_2025_097/MSCASPT2_parallel/rootcombparsl/quintet/rasscf/quintet.JobIph /tmp/parsl_582461_1774787888_root1/root1.584800/root1.JobIph

--- Start Module: caspt2 at Sun Mar 29 14:38:15 2026 ---
 
()()()()()()()()()()()()()()()()()()()()()()()()()()()()()()()()()()()()()()()()()()()()()()()()()()

                                              &CASPT2

                                   only a single process is used
                        available to each process: 20 GB of memory, 1 thread
                                            pid: 584855
()()()()()()()()()()()()()()()()()()()()()()()()()()()()()()()()()()()()()()()()()()()()()()()()()()
 
 ###############################################################################
 ###############################################################################
 ###                                                                         ###
 ###                                                                         ###
 ###    WARNING: User changed nr of frozen orbitals.                         ###
 ###                                                                         ###
 ###                                                                         ###
 ###############################################################################
 ###############################################################################
 
      Header of the ONEINT file:
      --------------------------
      
      Integrals generated by Gateway/Seward, Sun Mar 29 01:42:20 2026
 
 
      Cartesian coordinates in angstrom:
      -----------------------------------------------------
      No.  Label        X            Y            Z        
      -----------------------------------------------------
       1   PO1       -2.37500000   0.00000000   0.00000000
       2   PO2        2.37500000   0.00000000   0.00000000
      -----------------------------------------------------
      Nuclear repulsion energy =  786.07882055
 
++    Wave function specifications:
      -----------------------------
 
      Number of closed shell electrons           0
      Number of electrons in active shells      12
      Max number of holes in RAS1 space          0
      Max number of electrons in RAS3 space      0
      Number of inactive orbitals                0
      Number of active orbitals                  8
      Number of secondary orbitals             150
      Spin quantum number                      2.0
      State symmetry                             1
      Number of CSFs                            70
      Number of CASSCF root(s) available        70
      CASPT2 state passed to geometry opt.      28
      A file JOBMIX will be created
      This is a MULTI-STATE CASSCF reference
      Number of CI roots used                   70
      These are:                                 1   2   3   4   5   6   7   8   9  10
                                                11  12  13  14  15  16  17  18  19  20
                                                21  22  23  24  25  26  27  28  29  30
                                                31  32  33  34  35  36  37  38  39  40
                                                41  42  43  44  45  46  47  48  49  50
                                                51  52  53  54  55  56  57  58  59  60
                                                61  62  63  64  65  66  67  68  69  70
      Off-diagonal elements of Heff are computed
--
 
++    Orbital specifications:
      -----------------------
 
      Symmetry species                           1
                                                 a
      Frozen orbitals                           78
      Inactive orbitals                          0
      Active orbitals                            8
      Secondary orbitals                       150
      Deleted orbitals                           0
      Number of basis functions                236
--
 
++    CASPT2 specifications:
      ----------------------
 
      Type of calculation                        MS-CASPT2
      Fock operator                              state-specific
      IPEA shift                                 0.25
      Real shift                                 0.00
      Imaginary shift                            0.25
      The input orbitals will be transformed to quasi-canonical
--
 
--------------------------------------------------------------------------------
 Estimated memory requirements:
  POLY3 :                   259324
  RHS:                     1165256
  SIGMA :                  1880800
  PRPCTL:                        0
 Available workspace:   2499931408
 
  Heff[1] in the original model space basis:
                1               2               3               4               5
   1   -44342.05947781      0.00000000      0.00000000      0.00000000      0.00000000
   2        0.00000000 -44342.05947477      0.00000000      0.00000000      0.00000000
   3        0.00000000      0.00000000 -44342.05728277      0.00000000      0.00000000
   4        0.00000000      0.00000000      0.00000000 -44342.05721586      0.00000000
   5        0.00000000      0.00000000      0.00000000      0.00000000 -44342.05721287
   6        0.00000000      0.00000000      0.00000000      0.00000000      0.00000000
   7        0.00000000      0.00000000      0.00000000      0.00000000      0.00000000
   8        0.00000000      0.00000000      0.00000000      0.00000000      0.00000000
   9        0.00000000      0.00000000      0.00000000      0.00000000      0.00000000
  10        0.00000000      0.00000000      0.00000000      0.00000000      0.00000000
  11        0.00000000      0.00000000      0.00000000      0.00000000      0.00000000
  12        0.00000000      0.00000000      0.00000000      0.00000000      0.00000000
  13        0.00000000      0.00000000      0.00000000      0.00000000      0.00000000
  14        0.00000000      0.00000000      0.00000000      0.00000000      0.00000000
  15        0.00000000      0.00000000      0.00000000      0.00000000      0.00000000
  16        0.00000000      0.00000000      0.00000000      0.00000000      0.00000000
  17        0.00000000      0.00000000      0.00000000      0.00000000      0.00000000
  18        0.00000000      0.00000000      0.00000000      0.00000000      0.00000000
  19        0.00000000      0.00000000      0.00000000      0.00000000      0.00000000
  20        0.00000000      0.00000000      0.00000000      0.00000000      0.00000000
  21        0.00000000      0.00000000      0.00000000      0.00000000      0.00000000
  22        0.00000000      0.00000000      0.00000000      0.00000000      0.00000000
  23        0.00000000      0.00000000      0.00000000      0.00000000      0.00000000
  24        0.00000000      0.00000000      0.00000000      0.00000000      0.00000000
  25        0.00000000      0.00000000      0.00000000      0.00000000      0.00000000
  26        0.00000000      0.00000000      0.00000000      0.00000000      0.00000000
  27        0.00000000      0.00000000      0.00000000      0.00000000      0.00000000
  28        0.00000000      0.00000000      0.00000000      0.00000000      0.00000000
  29        0.00000000      0.00000000      0.00000000      0.00000000      0.00000000
  30        0.00000000      0.00000000      0.00000000      0.00000000      0.00000000
  31        0.00000000      0.00000000      0.00000000      0.00000000      0.00000000
  32        0.00000000      0.00000000      0.00000000      0.00000000      0.00000000
  33        0.00000000      0.00000000      0.00000000      0.00000000      0.00000000
  34        0.00000000      0.00000000      0.00000000      0.00000000      0.00000000
  35        0.00000000      0.00000000      0.00000000      0.00000000      0.00000000
  36        0.00000000      0.00000000      0.00000000      0.00000000      0.00000000
  37        0.00000000      0.00000000      0.00000000      0.00000000      0.00000000
  38        0.00000000      0.00000000      0.00000000      0.00000000      0.00000000
  39        0.00000000      0.00000000      0.00000000      0.00000000      0.00000000
  40        0.00000000      0.00000000      0.00000000      0.00000000      0.00000000
  41        0.00000000      0.00000000      0.00000000      0.00000000      0.00000000
  42        0.00000000      0.00000000      0.00000000      0.00000000      0.00000000
  43        0.00000000      0.00000000      0.00000000      0.00000000      0.00000000
  44        0.00000000      0.00000000      0.00000000      0.00000000      0.00000000
  45        0.00000000      0.00000000      0.00000000      0.00000000      0.00000000
  46        0.00000000      0.00000000      0.00000000      0.00000000      0.00000000
  47        0.00000000      0.00000000      0.00000000      0.00000000      0.00000000
  48        0.00000000      0.00000000      0.00000000      0.00000000      0.00000000
  49        0.00000000      0.00000000      0.00000000      0.00000000      0.00000000
  50        0.00000000      0.00000000      0.00000000      0.00000000      0.00000000
  51        0.00000000      0.00000000      0.00000000      0.00000000      0.00000000
  52        0.00000000      0.00000000      0.00000000      0.00000000      0.00000000
  53        0.00000000      0.00000000      0.00000000      0.00000000      0.00000000
  54        0.00000000      0.00000000      0.00000000      0.00000000      0.00000000
  55        0.00000000      0.00000000      0.00000000      0.00000000      0.00000000
  56        0.00000000      0.00000000      0.00000000      0.00000000      0.00000000
  57        0.00000000      0.00000000      0.00000000      0.00000000      0.00000000
  58        0.00000000      0.00000000      0.00000000      0.00000000      0.00000000
  59        0.00000000      0.00000000      0.00000000      0.00000000      0.00000000
  60        0.00000000      0.00000000      0.00000000      0.00000000      0.00000000
  61        0.00000000      0.00000000      0.00000000      0.00000000      0.00000000
  62        0.00000000      0.00000000      0.00000000      0.00000000      0.00000000
  63        0.00000000      0.00000000      0.00000000      0.00000000      0.00000000
  64        0.00000000      0.00000000      0.00000000      0.00000000      0.00000000
  65        0.00000000      0.00000000      0.00000000      0.00000000      0.00000000
  66        0.00000000      0.00000000      0.00000000      0.00000000      0.00000000
  67        0.00000000      0.00000000      0.00000000      0.00000000      0.00000000
  68        0.00000000      0.00000000      0.00000000      0.00000000      0.00000000
  69        0.00000000      0.00000000      0.00000000      0.00000000      0.00000000
  70        0.00000000      0.00000000      0.00000000      0.00000000      0.00000000
 
                6               7               8               9              10
   1        0.00000000      0.00000000      0.00000000      0.00000000      0.00000000
   2        0.00000000      0.00000000      0.00000000      0.00000000      0.00000000
   3        0.00000000      0.00000000      0.00000000      0.00000000      0.00000000
   4        0.00000000      0.00000000      0.00000000      0.00000000      0.00000000
   5        0.00000000      0.00000000      0.00000000      0.00000000      0.00000000
   6   -44342.05680343      0.00000000      0.00000000      0.00000000      0.00000000
   7        0.00000000 -44342.05675850      0.00000000      0.00000000      0.00000000
   8        0.00000000      0.00000000 -44342.05675833      0.00000000      0.00000000
   9        0.00000000      0.00000000      0.00000000 -44342.05434221      0.00000000
  10        0.00000000      0.00000000      0.00000000      0.00000000 -44341.88158928
  11        0.00000000      0.00000000      0.00000000      0.00000000      0.00000000
  12        0.00000000      0.00000000      0.00000000      0.00000000      0.00000000
  13        0.00000000      0.00000000      0.00000000      0.00000000      0.00000000
  14        0.00000000      0.00000000      0.00000000      0.00000000      0.00000000
  15        0.00000000      0.00000000      0.00000000      0.00000000      0.00000000
  16        0.00000000      0.00000000      0.00000000      0.00000000      0.00000000
  17        0.00000000      0.00000000      0.00000000      0.00000000      0.00000000
  18        0.00000000      0.00000000      0.00000000      0.00000000      0.00000000
  19        0.00000000      0.00000000      0.00000000      0.00000000      0.00000000
  20        0.00000000      0.00000000      0.00000000      0.00000000      0.00000000
  21        0.00000000      0.00000000      0.00000000      0.00000000      0.00000000
  22        0.00000000      0.00000000      0.00000000      0.00000000      0.00000000
  23        0.00000000      0.00000000      0.00000000      0.00000000      0.00000000
  24        0.00000000      0.00000000      0.00000000      0.00000000      0.00000000
  25        0.00000000      0.00000000      0.00000000      0.00000000      0.00000000
  26        0.00000000      0.00000000      0.00000000      0.00000000      0.00000000
  27        0.00000000      0.00000000      0.00000000      0.00000000      0.00000000
  28        0.00000000      0.00000000      0.00000000      0.00000000      0.00000000
  29        0.00000000      0.00000000      0.00000000      0.00000000      0.00000000
  30        0.00000000      0.00000000      0.00000000      0.00000000      0.00000000
  31        0.00000000      0.00000000      0.00000000      0.00000000      0.00000000
  32        0.00000000      0.00000000      0.00000000      0.00000000      0.00000000
  33        0.00000000      0.00000000      0.00000000      0.00000000      0.00000000
  34        0.00000000      0.00000000      0.00000000      0.00000000      0.00000000
  35        0.00000000      0.00000000      0.00000000      0.00000000      0.00000000
  36        0.00000000      0.00000000      0.00000000      0.00000000      0.00000000
  37        0.00000000      0.00000000      0.00000000      0.00000000      0.00000000
  38        0.00000000      0.00000000      0.00000000      0.00000000      0.00000000
  39        0.00000000      0.00000000      0.00000000      0.00000000      0.00000000
  40        0.00000000      0.00000000      0.00000000      0.00000000      0.00000000
  41        0.00000000      0.00000000      0.00000000      0.00000000      0.00000000
  42        0.00000000      0.00000000      0.00000000      0.00000000      0.00000000
  43        0.00000000      0.00000000      0.00000000      0.00000000      0.00000000
  44        0.00000000      0.00000000      0.00000000      0.00000000      0.00000000
  45        0.00000000      0.00000000      0.00000000      0.00000000      0.00000000
  46        0.00000000      0.00000000      0.00000000      0.00000000      0.00000000
  47        0.00000000      0.00000000      0.00000000      0.00000000      0.00000000
  48        0.00000000      0.00000000      0.00000000      0.00000000      0.00000000
  49        0.00000000      0.00000000      0.00000000      0.00000000      0.00000000
  50        0.00000000      0.00000000      0.00000000      0.00000000      0.00000000
  51        0.00000000      0.00000000      0.00000000      0.00000000      0.00000000
  52        0.00000000      0.00000000      0.00000000      0.00000000      0.00000000
  53        0.00000000      0.00000000      0.00000000      0.00000000      0.00000000
  54        0.00000000      0.00000000      0.00000000      0.00000000      0.00000000
  55        0.00000000      0.00000000      0.00000000      0.00000000      0.00000000
  56        0.00000000      0.00000000      0.00000000      0.00000000      0.00000000
  57        0.00000000      0.00000000      0.00000000      0.00000000      0.00000000
  58        0.00000000      0.00000000      0.00000000      0.00000000      0.00000000
  59        0.00000000      0.00000000      0.00000000      0.00000000      0.00000000
  60        0.00000000      0.00000000      0.00000000      0.00000000      0.00000000
  61        0.00000000      0.00000000      0.00000000      0.00000000      0.00000000
  62        0.00000000      0.00000000      0.00000000      0.00000000      0.00000000
  63        0.00000000      0.00000000      0.00000000      0.00000000      0.00000000
  64        0.00000000      0.00000000      0.00000000      0.00000000      0.00000000
  65        0.00000000      0.00000000      0.00000000      0.00000000      0.00000000
  66        0.00000000      0.00000000      0.00000000      0.00000000      0.00000000
  67        0.00000000      0.00000000      0.00000000      0.00000000      0.00000000
  68        0.00000000      0.00000000      0.00000000      0.00000000      0.00000000
  69        0.00000000      0.00000000      0.00000000      0.00000000      0.00000000
  70        0.00000000      0.00000000      0.00000000      0.00000000      0.00000000
 
               11              12              13              14              15
   1        0.00000000      0.00000000      0.00000000      0.00000000      0.00000000
   2        0.00000000      0.00000000      0.00000000      0.00000000      0.00000000
   3        0.00000000      0.00000000      0.00000000      0.00000000      0.00000000
   4        0.00000000      0.00000000      0.00000000      0.00000000      0.00000000
   5        0.00000000      0.00000000      0.00000000      0.00000000      0.00000000
   6        0.00000000      0.00000000      0.00000000      0.00000000      0.00000000
   7        0.00000000      0.00000000      0.00000000      0.00000000      0.00000000
   8        0.00000000      0.00000000      0.00000000      0.00000000      0.00000000
   9        0.00000000      0.00000000      0.00000000      0.00000000      0.00000000
  10        0.00000000      0.00000000      0.00000000      0.00000000      0.00000000
  11   -44341.88158757      0.00000000      0.00000000      0.00000000      0.00000000
  12        0.00000000 -44341.88035257      0.00000000      0.00000000      0.00000000
  13        0.00000000      0.00000000 -44341.88035091      0.00000000      0.00000000
  14        0.00000000      0.00000000      0.00000000 -44341.87685770      0.00000000
  15        0.00000000      0.00000000      0.00000000      0.00000000 -44341.87662049
  16        0.00000000      0.00000000      0.00000000      0.00000000      0.00000000
  17        0.00000000      0.00000000      0.00000000      0.00000000      0.00000000
  18        0.00000000      0.00000000      0.00000000      0.00000000      0.00000000
  19        0.00000000      0.00000000      0.00000000      0.00000000      0.00000000
  20        0.00000000      0.00000000      0.00000000      0.00000000      0.00000000
  21        0.00000000      0.00000000      0.00000000      0.00000000      0.00000000
  22        0.00000000      0.00000000      0.00000000      0.00000000      0.00000000
  23        0.00000000      0.00000000      0.00000000      0.00000000      0.00000000
  24        0.00000000      0.00000000      0.00000000      0.00000000      0.00000000
  25        0.00000000      0.00000000      0.00000000      0.00000000      0.00000000
  26        0.00000000      0.00000000      0.00000000      0.00000000      0.00000000
  27        0.00000000      0.00000000      0.00000000      0.00000000      0.00000000
  28        0.00000000      0.00000000      0.00000000      0.00000000      0.00000000
  29        0.00000000      0.00000000      0.00000000      0.00000000      0.00000000
  30        0.00000000      0.00000000      0.00000000      0.00000000      0.00000000
  31        0.00000000      0.00000000      0.00000000      0.00000000      0.00000000
  32        0.00000000      0.00000000      0.00000000      0.00000000      0.00000000
  33        0.00000000      0.00000000      0.00000000      0.00000000      0.00000000
  34        0.00000000      0.00000000      0.00000000      0.00000000      0.00000000
  35        0.00000000      0.00000000      0.00000000      0.00000000      0.00000000
  36        0.00000000      0.00000000      0.00000000      0.00000000      0.00000000
  37        0.00000000      0.00000000      0.00000000      0.00000000      0.00000000
  38        0.00000000      0.00000000      0.00000000      0.00000000      0.00000000
  39        0.00000000      0.00000000      0.00000000      0.00000000      0.00000000
  40        0.00000000      0.00000000      0.00000000      0.00000000      0.00000000
  41        0.00000000      0.00000000      0.00000000      0.00000000      0.00000000
  42        0.00000000      0.00000000      0.00000000      0.00000000      0.00000000
  43        0.00000000      0.00000000      0.00000000      0.00000000      0.00000000
  44        0.00000000      0.00000000      0.00000000      0.00000000      0.00000000
  45        0.00000000      0.00000000      0.00000000      0.00000000      0.00000000
  46        0.00000000      0.00000000      0.00000000      0.00000000      0.00000000
  47        0.00000000      0.00000000      0.00000000      0.00000000      0.00000000
  48        0.00000000      0.00000000      0.00000000      0.00000000      0.00000000
  49        0.00000000      0.00000000      0.00000000      0.00000000      0.00000000
  50        0.00000000      0.00000000      0.00000000      0.00000000      0.00000000
  51        0.00000000      0.00000000      0.00000000      0.00000000      0.00000000
  52        0.00000000      0.00000000      0.00000000      0.00000000      0.00000000
  53        0.00000000      0.00000000      0.00000000      0.00000000      0.00000000
  54        0.00000000      0.00000000      0.00000000      0.00000000      0.00000000
  55        0.00000000      0.00000000      0.00000000      0.00000000      0.00000000
  56        0.00000000      0.00000000      0.00000000      0.00000000      0.00000000
  57        0.00000000      0.00000000      0.00000000      0.00000000      0.00000000
  58        0.00000000      0.00000000      0.00000000      0.00000000      0.00000000
  59        0.00000000      0.00000000      0.00000000      0.00000000      0.00000000
  60        0.00000000      0.00000000      0.00000000      0.00000000      0.00000000
  61        0.00000000      0.00000000      0.00000000      0.00000000      0.00000000
  62        0.00000000      0.00000000      0.00000000      0.00000000      0.00000000
  63        0.00000000      0.00000000      0.00000000      0.00000000      0.00000000
  64        0.00000000      0.00000000      0.00000000      0.00000000      0.00000000
  65        0.00000000      0.00000000      0.00000000      0.00000000      0.00000000
  66        0.00000000      0.00000000      0.00000000      0.00000000      0.00000000
  67        0.00000000      0.00000000      0.00000000      0.00000000      0.00000000
  68        0.00000000      0.00000000      0.00000000      0.00000000      0.00000000
  69        0.00000000      0.00000000      0.00000000      0.00000000      0.00000000
  70        0.00000000      0.00000000      0.00000000      0.00000000      0.00000000
 
               16              17              18              19              20
   1        0.00000000      0.00000000      0.00000000      0.00000000      0.00000000
   2        0.00000000      0.00000000      0.00000000      0.00000000      0.00000000
   3        0.00000000      0.00000000      0.00000000      0.00000000      0.00000000
   4        0.00000000      0.00000000      0.00000000      0.00000000      0.00000000
   5        0.00000000      0.00000000      0.00000000      0.00000000      0.00000000
   6        0.00000000      0.00000000      0.00000000      0.00000000      0.00000000
   7        0.00000000      0.00000000      0.00000000      0.00000000      0.00000000
   8        0.00000000      0.00000000      0.00000000      0.00000000      0.00000000
   9        0.00000000      0.00000000      0.00000000      0.00000000      0.00000000
  10        0.00000000      0.00000000      0.00000000      0.00000000      0.00000000
  11        0.00000000      0.00000000      0.00000000      0.00000000      0.00000000
  12        0.00000000      0.00000000      0.00000000      0.00000000      0.00000000
  13        0.00000000      0.00000000      0.00000000      0.00000000      0.00000000
  14        0.00000000      0.00000000      0.00000000      0.00000000      0.00000000
  15        0.00000000      0.00000000      0.00000000      0.00000000      0.00000000
  16   -44341.62436780      0.00000000      0.00000000      0.00000000      0.00000000
  17        0.00000000 -44341.62066119      0.00000000      0.00000000      0.00000000
  18        0.00000000      0.00000000 -44341.62066117      0.00000000      0.00000000
  19        0.00000000      0.00000000      0.00000000 -44341.62032451      0.00000000
  20        0.00000000      0.00000000      0.00000000      0.00000000 -44341.61744500
  21        0.00000000      0.00000000      0.00000000      0.00000000      0.00000000
  22        0.00000000      0.00000000      0.00000000      0.00000000      0.00000000
  23        0.00000000      0.00000000      0.00000000      0.00000000      0.00000000
  24        0.00000000      0.00000000      0.00000000      0.00000000      0.00000000
  25        0.00000000      0.00000000      0.00000000      0.00000000      0.00000000
  26        0.00000000      0.00000000      0.00000000      0.00000000      0.00000000
  27        0.00000000      0.00000000      0.00000000      0.00000000      0.00000000
  28        0.00000000      0.00000000      0.00000000      0.00000000      0.00000000
  29        0.00000000      0.00000000      0.00000000      0.00000000      0.00000000
  30        0.00000000      0.00000000      0.00000000      0.00000000      0.00000000
  31        0.00000000      0.00000000      0.00000000      0.00000000      0.00000000
  32        0.00000000      0.00000000      0.00000000      0.00000000      0.00000000
  33        0.00000000      0.00000000      0.00000000      0.00000000      0.00000000
  34        0.00000000      0.00000000      0.00000000      0.00000000      0.00000000
  35        0.00000000      0.00000000      0.00000000      0.00000000      0.00000000
  36        0.00000000      0.00000000      0.00000000      0.00000000      0.00000000
  37        0.00000000      0.00000000      0.00000000      0.00000000      0.00000000
  38        0.00000000      0.00000000      0.00000000      0.00000000      0.00000000
  39        0.00000000      0.00000000      0.00000000      0.00000000      0.00000000
  40        0.00000000      0.00000000      0.00000000      0.00000000      0.00000000
  41        0.00000000      0.00000000      0.00000000      0.00000000      0.00000000
  42        0.00000000      0.00000000      0.00000000      0.00000000      0.00000000
  43        0.00000000      0.00000000      0.00000000      0.00000000      0.00000000
  44        0.00000000      0.00000000      0.00000000      0.00000000      0.00000000
  45        0.00000000      0.00000000      0.00000000      0.00000000      0.00000000
  46        0.00000000      0.00000000      0.00000000      0.00000000      0.00000000
  47        0.00000000      0.00000000      0.00000000      0.00000000      0.00000000
  48        0.00000000      0.00000000      0.00000000      0.00000000      0.00000000
  49        0.00000000      0.00000000      0.00000000      0.00000000      0.00000000
  50        0.00000000      0.00000000      0.00000000      0.00000000      0.00000000
  51        0.00000000      0.00000000      0.00000000      0.00000000      0.00000000
  52        0.00000000      0.00000000      0.00000000      0.00000000      0.00000000
  53        0.00000000      0.00000000      0.00000000      0.00000000      0.00000000
  54        0.00000000      0.00000000      0.00000000      0.00000000      0.00000000
  55        0.00000000      0.00000000      0.00000000      0.00000000      0.00000000
  56        0.00000000      0.00000000      0.00000000      0.00000000      0.00000000
  57        0.00000000      0.00000000      0.00000000      0.00000000      0.00000000
  58        0.00000000      0.00000000      0.00000000      0.00000000      0.00000000
  59        0.00000000      0.00000000      0.00000000      0.00000000      0.00000000
  60        0.00000000      0.00000000      0.00000000      0.00000000      0.00000000
  61        0.00000000      0.00000000      0.00000000      0.00000000      0.00000000
  62        0.00000000      0.00000000      0.00000000      0.00000000      0.00000000
  63        0.00000000      0.00000000      0.00000000      0.00000000      0.00000000
  64        0.00000000      0.00000000      0.00000000      0.00000000      0.00000000
  65        0.00000000      0.00000000      0.00000000      0.00000000      0.00000000
  66        0.00000000      0.00000000      0.00000000      0.00000000      0.00000000
  67        0.00000000      0.00000000      0.00000000      0.00000000      0.00000000
  68        0.00000000      0.00000000      0.00000000      0.00000000      0.00000000
  69        0.00000000      0.00000000      0.00000000      0.00000000      0.00000000
  70        0.00000000      0.00000000      0.00000000      0.00000000      0.00000000
 
               21              22              23              24              25
   1        0.00000000      0.00000000      0.00000000      0.00000000      0.00000000
   2        0.00000000      0.00000000      0.00000000      0.00000000      0.00000000
   3        0.00000000      0.00000000      0.00000000      0.00000000      0.00000000
   4        0.00000000      0.00000000      0.00000000      0.00000000      0.00000000
   5        0.00000000      0.00000000      0.00000000      0.00000000      0.00000000
   6        0.00000000      0.00000000      0.00000000      0.00000000      0.00000000
   7        0.00000000      0.00000000      0.00000000      0.00000000      0.00000000
   8        0.00000000      0.00000000      0.00000000      0.00000000      0.00000000
   9        0.00000000      0.00000000      0.00000000      0.00000000      0.00000000
  10        0.00000000      0.00000000      0.00000000      0.00000000      0.00000000
  11        0.00000000      0.00000000      0.00000000      0.00000000      0.00000000
  12        0.00000000      0.00000000      0.00000000      0.00000000      0.00000000
  13        0.00000000      0.00000000      0.00000000      0.00000000      0.00000000
  14        0.00000000      0.00000000      0.00000000      0.00000000      0.00000000
  15        0.00000000      0.00000000      0.00000000      0.00000000      0.00000000
  16        0.00000000      0.00000000      0.00000000      0.00000000      0.00000000
  17        0.00000000      0.00000000      0.00000000      0.00000000      0.00000000
  18        0.00000000      0.00000000      0.00000000      0.00000000      0.00000000
  19        0.00000000      0.00000000      0.00000000      0.00000000      0.00000000
  20        0.00000000      0.00000000      0.00000000      0.00000000      0.00000000
  21   -44341.61710154      0.00000000      0.00000000      0.00000000      0.00000000
  22        0.00000000 -44341.61709926      0.00000000      0.00000000      0.00000000
  23        0.00000000      0.00000000 -44341.61526605      0.00000000      0.00000000
  24        0.00000000      0.00000000      0.00000000 -44341.61526482      0.00000000
  25        0.00000000      0.00000000      0.00000000      0.00000000 -44341.61374626
  26        0.00000000      0.00000000      0.00000000      0.00000000      0.00000000
  27        0.00000000      0.00000000      0.00000000      0.00000000      0.00000000
  28        0.00000000      0.00000000      0.00000000      0.00000000      0.00000000
  29        0.00000000      0.00000000      0.00000000      0.00000000      0.00000000
  30        0.00000000      0.00000000      0.00000000      0.00000000      0.00000000
  31        0.00000000      0.00000000      0.00000000      0.00000000      0.00000000
  32        0.00000000      0.00000000      0.00000000      0.00000000      0.00000000
  33        0.00000000      0.00000000      0.00000000      0.00000000      0.00000000
  34        0.00000000      0.00000000      0.00000000      0.00000000      0.00000000
  35        0.00000000      0.00000000      0.00000000      0.00000000      0.00000000
  36        0.00000000      0.00000000      0.00000000      0.00000000      0.00000000
  37        0.00000000      0.00000000      0.00000000      0.00000000      0.00000000
  38        0.00000000      0.00000000      0.00000000      0.00000000      0.00000000
  39        0.00000000      0.00000000      0.00000000      0.00000000      0.00000000
  40        0.00000000      0.00000000      0.00000000      0.00000000      0.00000000
  41        0.00000000      0.00000000      0.00000000      0.00000000      0.00000000
  42        0.00000000      0.00000000      0.00000000      0.00000000      0.00000000
  43        0.00000000      0.00000000      0.00000000      0.00000000      0.00000000
  44        0.00000000      0.00000000      0.00000000      0.00000000      0.00000000
  45        0.00000000      0.00000000      0.00000000      0.00000000      0.00000000
  46        0.00000000      0.00000000      0.00000000      0.00000000      0.00000000
  47        0.00000000      0.00000000      0.00000000      0.00000000      0.00000000
  48        0.00000000      0.00000000      0.00000000      0.00000000      0.00000000
  49        0.00000000      0.00000000      0.00000000      0.00000000      0.00000000
  50        0.00000000      0.00000000      0.00000000      0.00000000      0.00000000
  51        0.00000000      0.00000000      0.00000000      0.00000000      0.00000000
  52        0.00000000      0.00000000      0.00000000      0.00000000      0.00000000
  53        0.00000000      0.00000000      0.00000000      0.00000000      0.00000000
  54        0.00000000      0.00000000      0.00000000      0.00000000      0.00000000
  55        0.00000000      0.00000000      0.00000000      0.00000000      0.00000000
  56        0.00000000      0.00000000      0.00000000      0.00000000      0.00000000
  57        0.00000000      0.00000000      0.00000000      0.00000000      0.00000000
  58        0.00000000      0.00000000      0.00000000      0.00000000      0.00000000
  59        0.00000000      0.00000000      0.00000000      0.00000000      0.00000000
  60        0.00000000      0.00000000      0.00000000      0.00000000      0.00000000
  61        0.00000000      0.00000000      0.00000000      0.00000000      0.00000000
  62        0.00000000      0.00000000      0.00000000      0.00000000      0.00000000
  63        0.00000000      0.00000000      0.00000000      0.00000000      0.00000000
  64        0.00000000      0.00000000      0.00000000      0.00000000      0.00000000
  65        0.00000000      0.00000000      0.00000000      0.00000000      0.00000000
  66        0.00000000      0.00000000      0.00000000      0.00000000      0.00000000
  67        0.00000000      0.00000000      0.00000000      0.00000000      0.00000000
  68        0.00000000      0.00000000      0.00000000      0.00000000      0.00000000
  69        0.00000000      0.00000000      0.00000000      0.00000000      0.00000000
  70        0.00000000      0.00000000      0.00000000      0.00000000      0.00000000
 
               26              27              28              29              30
   1        0.00000000      0.00000000      0.00000000      0.00000000      0.00000000
   2        0.00000000      0.00000000      0.00000000      0.00000000      0.00000000
   3        0.00000000      0.00000000      0.00000000      0.00000000      0.00000000
   4        0.00000000      0.00000000      0.00000000      0.00000000      0.00000000
   5        0.00000000      0.00000000      0.00000000      0.00000000      0.00000000
   6        0.00000000      0.00000000      0.00000000      0.00000000      0.00000000
   7        0.00000000      0.00000000      0.00000000      0.00000000      0.00000000
   8        0.00000000      0.00000000      0.00000000      0.00000000      0.00000000
   9        0.00000000      0.00000000      0.00000000      0.00000000      0.00000000
  10        0.00000000      0.00000000      0.00000000      0.00000000      0.00000000
  11        0.00000000      0.00000000      0.00000000      0.00000000      0.00000000
  12        0.00000000      0.00000000      0.00000000      0.00000000      0.00000000
  13        0.00000000      0.00000000      0.00000000      0.00000000      0.00000000
  14        0.00000000      0.00000000      0.00000000      0.00000000      0.00000000
  15        0.00000000      0.00000000      0.00000000      0.00000000      0.00000000
  16        0.00000000      0.00000000      0.00000000      0.00000000      0.00000000
  17        0.00000000      0.00000000      0.00000000      0.00000000      0.00000000
  18        0.00000000      0.00000000      0.00000000      0.00000000      0.00000000
  19        0.00000000      0.00000000      0.00000000      0.00000000      0.00000000
  20        0.00000000      0.00000000      0.00000000      0.00000000      0.00000000
  21        0.00000000      0.00000000      0.00000000      0.00000000      0.00000000
  22        0.00000000      0.00000000      0.00000000      0.00000000      0.00000000
  23        0.00000000      0.00000000      0.00000000      0.00000000      0.00000000
  24        0.00000000      0.00000000      0.00000000      0.00000000      0.00000000
  25        0.00000000      0.00000000      0.00000000      0.00000000      0.00000000
  26   -44341.61245223      0.00000000      0.00000000      0.00000000      0.00000000
  27        0.00000000 -44341.61244981      0.00000000      0.00000000      0.00000000
  28        0.00000000      0.00000000 -44341.61126427      0.00000000      0.00000000
  29        0.00000000      0.00000000      0.00000000 -44341.61125402      0.00000000
  30        0.00000000      0.00000000      0.00000000      0.00000000 -44341.61125400
  31        0.00000000      0.00000000      0.00000000      0.00000000      0.00000000
  32        0.00000000      0.00000000      0.00000000      0.00000000      0.00000000
  33        0.00000000      0.00000000      0.00000000      0.00000000      0.00000000
  34        0.00000000      0.00000000      0.00000000      0.00000000      0.00000000
  35        0.00000000      0.00000000      0.00000000      0.00000000      0.00000000
  36        0.00000000      0.00000000      0.00000000      0.00000000      0.00000000
  37        0.00000000      0.00000000      0.00000000      0.00000000      0.00000000
  38        0.00000000      0.00000000      0.00000000      0.00000000      0.00000000
  39        0.00000000      0.00000000      0.00000000      0.00000000      0.00000000
  40        0.00000000      0.00000000      0.00000000      0.00000000      0.00000000
  41        0.00000000      0.00000000      0.00000000      0.00000000      0.00000000
  42        0.00000000      0.00000000      0.00000000      0.00000000      0.00000000
  43        0.00000000      0.00000000      0.00000000      0.00000000      0.00000000
  44        0.00000000      0.00000000      0.00000000      0.00000000      0.00000000
  45        0.00000000      0.00000000      0.00000000      0.00000000      0.00000000
  46        0.00000000      0.00000000      0.00000000      0.00000000      0.00000000
  47        0.00000000      0.00000000      0.00000000      0.00000000      0.00000000
  48        0.00000000      0.00000000      0.00000000      0.00000000      0.00000000
  49        0.00000000      0.00000000      0.00000000      0.00000000      0.00000000
  50        0.00000000      0.00000000      0.00000000      0.00000000      0.00000000
  51        0.00000000      0.00000000      0.00000000      0.00000000      0.00000000
  52        0.00000000      0.00000000      0.00000000      0.00000000      0.00000000
  53        0.00000000      0.00000000      0.00000000      0.00000000      0.00000000
  54        0.00000000      0.00000000      0.00000000      0.00000000      0.00000000
  55        0.00000000      0.00000000      0.00000000      0.00000000      0.00000000
  56        0.00000000      0.00000000      0.00000000      0.00000000      0.00000000
  57        0.00000000      0.00000000      0.00000000      0.00000000      0.00000000
  58        0.00000000      0.00000000      0.00000000      0.00000000      0.00000000
  59        0.00000000      0.00000000      0.00000000      0.00000000      0.00000000
  60        0.00000000      0.00000000      0.00000000      0.00000000      0.00000000
  61        0.00000000      0.00000000      0.00000000      0.00000000      0.00000000
  62        0.00000000      0.00000000      0.00000000      0.00000000      0.00000000
  63        0.00000000      0.00000000      0.00000000      0.00000000      0.00000000
  64        0.00000000      0.00000000      0.00000000      0.00000000      0.00000000
  65        0.00000000      0.00000000      0.00000000      0.00000000      0.00000000
  66        0.00000000      0.00000000      0.00000000      0.00000000      0.00000000
  67        0.00000000      0.00000000      0.00000000      0.00000000      0.00000000
  68        0.00000000      0.00000000      0.00000000      0.00000000      0.00000000
  69        0.00000000      0.00000000      0.00000000      0.00000000      0.00000000
  70        0.00000000      0.00000000      0.00000000      0.00000000      0.00000000
 
               31              32              33              34              35
   1        0.00000000      0.00000000      0.00000000      0.00000000      0.00000000
   2        0.00000000      0.00000000      0.00000000      0.00000000      0.00000000
   3        0.00000000      0.00000000      0.00000000      0.00000000      0.00000000
   4        0.00000000      0.00000000      0.00000000      0.00000000      0.00000000
   5        0.00000000      0.00000000      0.00000000      0.00000000      0.00000000
   6        0.00000000      0.00000000      0.00000000      0.00000000      0.00000000
   7        0.00000000      0.00000000      0.00000000      0.00000000      0.00000000
   8        0.00000000      0.00000000      0.00000000      0.00000000      0.00000000
   9        0.00000000      0.00000000      0.00000000      0.00000000      0.00000000
  10        0.00000000      0.00000000      0.00000000      0.00000000      0.00000000
  11        0.00000000      0.00000000      0.00000000      0.00000000      0.00000000
  12        0.00000000      0.00000000      0.00000000      0.00000000      0.00000000
  13        0.00000000      0.00000000      0.00000000      0.00000000      0.00000000
  14        0.00000000      0.00000000      0.00000000      0.00000000      0.00000000
  15        0.00000000      0.00000000      0.00000000      0.00000000      0.00000000
  16        0.00000000      0.00000000      0.00000000      0.00000000      0.00000000
  17        0.00000000      0.00000000      0.00000000      0.00000000      0.00000000
  18        0.00000000      0.00000000      0.00000000      0.00000000      0.00000000
  19        0.00000000      0.00000000      0.00000000      0.00000000      0.00000000
  20        0.00000000      0.00000000      0.00000000      0.00000000      0.00000000
  21        0.00000000      0.00000000      0.00000000      0.00000000      0.00000000
  22        0.00000000      0.00000000      0.00000000      0.00000000      0.00000000
  23        0.00000000      0.00000000      0.00000000      0.00000000      0.00000000
  24        0.00000000      0.00000000      0.00000000      0.00000000      0.00000000
  25        0.00000000      0.00000000      0.00000000      0.00000000      0.00000000
  26        0.00000000      0.00000000      0.00000000      0.00000000      0.00000000
  27        0.00000000      0.00000000      0.00000000      0.00000000      0.00000000
  28        0.00000000      0.00000000      0.00000000      0.00000000      0.00000000
  29        0.00000000      0.00000000      0.00000000      0.00000000      0.00000000
  30        0.00000000      0.00000000      0.00000000      0.00000000      0.00000000
  31   -44341.61091843      0.00000000      0.00000000      0.00000000      0.00000000
  32        0.00000000 -44341.61064347      0.00000000      0.00000000      0.00000000
  33        0.00000000      0.00000000 -44341.61064243      0.00000000      0.00000000
  34        0.00000000      0.00000000      0.00000000 -44341.44441365      0.00000000
  35        0.00000000      0.00000000      0.00000000      0.00000000 -44341.44249274
  36        0.00000000      0.00000000      0.00000000      0.00000000      0.00000000
  37        0.00000000      0.00000000      0.00000000      0.00000000      0.00000000
  38        0.00000000      0.00000000      0.00000000      0.00000000      0.00000000
  39        0.00000000      0.00000000      0.00000000      0.00000000      0.00000000
  40        0.00000000      0.00000000      0.00000000      0.00000000      0.00000000
  41        0.00000000      0.00000000      0.00000000      0.00000000      0.00000000
  42        0.00000000      0.00000000      0.00000000      0.00000000      0.00000000
  43        0.00000000      0.00000000      0.00000000      0.00000000      0.00000000
  44        0.00000000      0.00000000      0.00000000      0.00000000      0.00000000
  45        0.00000000      0.00000000      0.00000000      0.00000000      0.00000000
  46        0.00000000      0.00000000      0.00000000      0.00000000      0.00000000
  47        0.00000000      0.00000000      0.00000000      0.00000000      0.00000000
  48        0.00000000      0.00000000      0.00000000      0.00000000      0.00000000
  49        0.00000000      0.00000000      0.00000000      0.00000000      0.00000000
  50        0.00000000      0.00000000      0.00000000      0.00000000      0.00000000
  51        0.00000000      0.00000000      0.00000000      0.00000000      0.00000000
  52        0.00000000      0.00000000      0.00000000      0.00000000      0.00000000
  53        0.00000000      0.00000000      0.00000000      0.00000000      0.00000000
  54        0.00000000      0.00000000      0.00000000      0.00000000      0.00000000
  55        0.00000000      0.00000000      0.00000000      0.00000000      0.00000000
  56        0.00000000      0.00000000      0.00000000      0.00000000      0.00000000
  57        0.00000000      0.00000000      0.00000000      0.00000000      0.00000000
  58        0.00000000      0.00000000      0.00000000      0.00000000      0.00000000
  59        0.00000000      0.00000000      0.00000000      0.00000000      0.00000000
  60        0.00000000      0.00000000      0.00000000      0.00000000      0.00000000
  61        0.00000000      0.00000000      0.00000000      0.00000000      0.00000000
  62        0.00000000      0.00000000      0.00000000      0.00000000      0.00000000
  63        0.00000000      0.00000000      0.00000000      0.00000000      0.00000000
  64        0.00000000      0.00000000      0.00000000      0.00000000      0.00000000
  65        0.00000000      0.00000000      0.00000000      0.00000000      0.00000000
  66        0.00000000      0.00000000      0.00000000      0.00000000      0.00000000
  67        0.00000000      0.00000000      0.00000000      0.00000000      0.00000000
  68        0.00000000      0.00000000      0.00000000      0.00000000      0.00000000
  69        0.00000000      0.00000000      0.00000000      0.00000000      0.00000000
  70        0.00000000      0.00000000      0.00000000      0.00000000      0.00000000
 
               36              37              38              39              40
   1        0.00000000      0.00000000      0.00000000      0.00000000      0.00000000
   2        0.00000000      0.00000000      0.00000000      0.00000000      0.00000000
   3        0.00000000      0.00000000      0.00000000      0.00000000      0.00000000
[...]
      217 PO2    6g2-      -0.0024    0.0000   -0.0019   -0.0000   -0.0000    0.0000
      218 PO2    7g2-      -0.0019    0.0000   -0.0016    0.0000   -0.0000    0.0000
      219 PO2    5g1-       0.0000    0.0000   -0.0000   -0.0031   -0.0000    0.0000
      220 PO2    6g1-      -0.0000   -0.0000    0.0000    0.0043    0.0000   -0.0000
      221 PO2    7g1-      -0.0000   -0.0000    0.0000    0.0032    0.0000   -0.0000
      222 PO2    5g0        0.0000   -0.0000   -0.0000    0.0000   -0.0046   -0.0000
      223 PO2    6g0       -0.0000    0.0000    0.0000   -0.0000    0.0062    0.0000
      224 PO2    7g0       -0.0000    0.0000    0.0000   -0.0000    0.0048   -0.0000
      225 PO2    5g1+       0.0000    0.0009    0.0000   -0.0000   -0.0000   -0.0129
      226 PO2    6g1+      -0.0000   -0.0010    0.0000    0.0000    0.0000    0.0200
      227 PO2    7g1+      -0.0000   -0.0009    0.0000    0.0000    0.0000    0.0150
      228 PO2    5g2+      -0.0000    0.0000    0.0000   -0.0000    0.0041    0.0000
      229 PO2    6g2+       0.0000   -0.0000   -0.0000    0.0000   -0.0052   -0.0000
      230 PO2    7g2+       0.0000   -0.0000   -0.0000    0.0000   -0.0043    0.0000
      231 PO2    5g3+       0.0000    0.0018    0.0000    0.0000    0.0000    0.0114
      232 PO2    6g3+      -0.0000   -0.0022   -0.0000   -0.0000   -0.0000   -0.0175
      233 PO2    7g3+      -0.0000   -0.0018   -0.0000   -0.0000   -0.0000   -0.0136
      234 PO2    5g4+      -0.0000    0.0000    0.0000   -0.0000    0.0066    0.0000
      235 PO2    6g4+       0.0000   -0.0000   -0.0000    0.0000   -0.0091   -0.0000
      236 PO2    7g4+       0.0000   -0.0000   -0.0000    0.0000   -0.0073   -0.0000
--
 
********************************************************************************
 Compute H0 matrices for state    1
--------------------------------------------------------------------------------
 
 With new orbitals, the CI array of state    1
--------------------------------------------------------------------------------
 CI COEFFICIENTS LARGER THAN  5.00E-02
  Occupation of active orbitals, and spin coupling
  of open shells. (u,d: Spin up or down).
  SGUGA info is (Midvert:IsyUp:UpperWalk/LowerWalk)
        Conf  SGUGA info        Occupation    Coefficient         Weight
           4  ( 2:1:   3/   1)   222uuu2u       -0.626752       0.392818
           6  ( 2:1:   1/   2)   22u22uuu        0.779182       0.607124
 
 
  Constructing G3/F3
   memory avail:     19.995169848 GB
   memory used:       0.000037520 GB
  Sym:   1, #Tasks:     64
--------------------------------------------------------------------------------
 H0 matrices have been computed.
 
********************************************************************************
  CASPT2 EQUATION SOLUTION
--------------------------------------------------------------------------------

 Computing the S/B matrices
 --------------------------
 
  Construct S matrices
 
  Construct B matrices
 
  Find transformation matrices to eigenbasis of block-diagonal part of H0.
  Eliminate linear dependency. Thresholds for:
   Initial squared norm  :  0.1000E-09
   Eigenvalue of scaled S:  0.1000E-07
 
  Condition numbers are computed after diagonal scaling and after removal of
  linear dependency. Resulting sizes, condition numbers, and times:
    CASE(SYM)       NASUP       NISUP      NINDEP     COND NR  CPU (s)
   VJTU  (1)          512           0           0    0.0            0
   VJTIP (1)           36           0           0    0.0            0
   VJTIM (1)           28           0           0    0.0            0
   ATVX  (1)          512         150         376   0.60E+11        0
   AIVX  (1)          128           0           0    0.0            0
   VJAIP (1)            8           0           0    0.0            0
   VJAIM (1)            8           0           0    0.0            0
   BVATP (1)           36       11325          36   0.12E+06        0
   BVATM (1)           28       11175          28    2.0            0
   BJATP (1)            8           0           0    0.0            0
   BJATM (1)            8           0           0    0.0            0
 
  Total nr of CASPT2 parameters:
   Before reduction:      797400
   After  reduction:      777000

 Computing the right-hand side (RHS) elements
 --------------------------------------------
  Using RHSALL2+ADDRHS algorithm
 
 Variance of |WF0>:       0.4569498497
 
 The contributions to the second order correlation energy in atomic units.
-----------------------------------------------------------------------------------------------------------------------------
  IT.      VJTU        VJTI        ATVX        AIVX        VJAI        BVAT        BJAT        BJAI        TOTAL       RNORM  
-----------------------------------------------------------------------------------------------------------------------------
   1     0.000000    0.000000   -0.042720    0.000000    0.000000   -0.134776    0.000000    0.000000   -0.177496    0.000490
   2     0.000000    0.000000   -0.042725    0.000000    0.000000   -0.134799    0.000000    0.000000   -0.177524    0.000025
   3     0.000000    0.000000   -0.042726    0.000000    0.000000   -0.134800    0.000000    0.000000   -0.177526    0.000001
 
  Correlation energy /Case, /Symm, and sums:
 VJTU      0.00000000  0.00000000
 VJTIP     0.00000000  0.00000000
 VJTIM     0.00000000  0.00000000
 ATVX     -0.04272623 -0.04272623
 AIVX      0.00000000  0.00000000
 VJAIP     0.00000000  0.00000000
 VJAIM     0.00000000  0.00000000
 BVATP    -0.08574173 -0.08574173
 BVATM    -0.04905788 -0.04905788
 BJATP     0.00000000  0.00000000
 BJATM     0.00000000  0.00000000
 BJAIP     0.00000000  0.00000000
 BJAIM     0.00000000  0.00000000
 Summed:  -0.17752583 -0.17752583
-----------------------------------------------------------------------------------------------------------------------------
 
  FINAL CASPT2 RESULT:
 
      Reference energy:      -44342.0594778084
      E2 (Non-variational):      -0.1775258348
      Shift correction:          -0.0037516471
      E2 (Variational):          -0.1812774820
      Total energy:          -44342.2407552904
      Residual norm:              0.0000000479
      Reference weight:           0.91642
 
      Contributions to the CASPT2 correlation energy
      Active & Virtual Only:         -0.1775258348
      One Inactive Excited:           0.0000000000
      Two Inactive Excited:           0.0000000000
 
 
++ Denominators, etc.
--------------------------------------------------------------------------------------------------------------
 Report on small energy denominators, large coefficients, and large energy contributions.
  The ACTIVE-MIX index denotes linear combinations which gives ON expansion functions
  and makes H0 diagonal within type.
  DENOMINATOR: The (H0_ii - E0) value from the above-mentioned diagonal approximation.
  RHS VALUE  : Right-Hand Side of CASPT2 Eqs.
  COEFFICIENT: Multiplies each of the above ON terms in the first-order wave function.
 Thresholds used:
         Denominators: 0.3000
         Coefficients: 0.0250
 Energy contributions: 0.0050
 
CASE  SYMM ACTIVE-MIX  NON-ACTIVE INDICES          DENOMINATOR     RHS VALUE       COEFFICIENT     CONTRIBUTION
--
 
   (Skipping property calculation,
    use PROP keyword to activate)
 
********************************************************************************
  CASPT2 MULTI-STATE COUPLINGS SECTION
 
 Hamiltonian Effective Couplings
 -------------------------------
 
                 |    1 > 
 <    1 |  -4.43422407552904E+04
 <    2 |  -4.89852395694693E-13
 <    3 |  -1.61337810635484E-11
 <    4 |   6.85172831735109E-06
 <    5 |   2.26646096981330E-11
 <    6 |   1.55864563835597E-11
 <    7 |  -1.38528707734033E-11
 <    8 |  -9.15311147407095E-15
 <    9 |  -6.07868583385568E-12
 <   10 |   9.11741519810210E-06
 <   11 |  -4.12789725778958E-11
 <   12 |  -5.26661724811412E-03
 <   13 |  -1.60225685551662E-09
 <   14 |  -2.33645457613262E-11
 <   15 |  -1.20778699774147E-12
 <   16 |  -2.16670485970495E-12
 <   17 |  -1.62751265898838E-12
 <   18 |   2.77717920755573E-12
 <   19 |   2.81608671572468E-13
 <   20 |   4.49396608009429E-12
 <   21 |  -4.61917712980243E-10
 <   22 |   2.11767134940647E-04
 <   23 |   2.19449909579878E-03
 <   24 |   2.19341376722094E-08
 <   25 |   8.12896985661559E-13
 <   26 |  -2.77730416024829E-11
 <   27 |   2.21098891276136E-06
 <   28 |   1.66130145131051E-11
 <   29 |  -1.01976000319639E-11
 <   30 |  -7.92298443652429E-12
 <   31 |  -8.24907660055976E-12
 <   32 |   7.36796270090842E-06
 <   33 |  -7.35033854481006E-12
 <   34 |  -7.39766011775725E-13
 <   35 |   6.20358155173075E-12
 <   36 |   2.53970493453533E-11
 <   37 |  -7.28860917738425E-12
 <   38 |   1.59763075431950E-11
 <   39 |  -2.50540454013790E-12
 <   40 |   2.95499677295325E-12
 <   41 |   2.68044728220136E-12
 <   42 |   6.84261774537556E-12
 <   43 |   1.49510317921379E-12
 <   44 |   1.77784973143844E-05
 <   45 |   8.60630785888558E-11
 <   46 |  -1.55708185180287E-04
 <   47 |  -2.24805001643854E-12
 <   48 |  -1.52412226166397E-05
 <   49 |   8.66235194725104E-11
 <   50 |   7.64236876085400E-04
 <   51 |  -3.78890271407143E-09
 <   52 |   3.33157375378958E-12
 <   53 |   6.19915608704518E-13
 <   54 |   2.39142952451405E-08
 <   55 |   1.53684032366992E-03
 <   56 |  -3.26596135558399E-12
 <   57 |   3.29340990096833E-07
 <   58 |   8.84026874196713E-12
 <   59 |   1.82764666807017E-11
 <   60 |  -1.41574203261737E-11
 <   61 |  -2.30018251149522E-11
 <   62 |   2.70280672466511E-12
 <   63 |   3.37504861495499E-13
 <   64 |   5.37298283561736E-06
 <   65 |  -5.95362225307370E-11
 <   66 |   2.33324115040731E-05
 <   67 |  -4.32630341996270E-12
 <   68 |   1.16408520369024E-12
 <   69 |  -1.92060751984267E-12
 <   70 |   2.69045971013650E-12
 
Time spent for multi-state couplings for root    1:
 ----------------- CPU TIME  -------- WALL TIME
 <    1 |             0.000               0.000
 <    2 |             0.210               0.210
 <    3 |             0.220               0.220
 <    4 |             0.210               0.210
 <    5 |             0.210               0.220
 <    6 |             0.210               0.210
 <    7 |             0.210               0.220
 <    8 |             0.210               0.210
 <    9 |             0.220               0.220
 <   10 |             0.210               0.210
 <   11 |             0.210               0.220
 <   12 |             0.210               0.210
 <   13 |             0.220               0.210
 <   14 |             0.210               0.210
 <   15 |             0.210               0.210
 <   16 |             0.210               0.220
 <   17 |             0.220               0.210
 <   18 |             0.210               0.220
 <   19 |             0.210               0.210
 <   20 |             0.210               0.220
 <   21 |             0.220               0.210
 <   22 |             0.210               0.220
 <   23 |             0.210               0.210
 <   24 |             0.210               0.220
 <   25 |             0.210               0.210
 <   26 |             0.220               0.210
 <   27 |             0.210               0.240
 <   28 |             0.210               0.220
 <   29 |             0.210               0.210
 <   30 |             0.220               0.220
 <   31 |             0.210               0.210
 <   32 |             0.210               0.220
 <   33 |             0.210               0.210
 <   34 |             0.220               0.220
 <   35 |             0.210               0.210
 <   36 |             0.210               0.220
 <   37 |             0.210               0.210
 <   38 |             0.220               0.210
 <   39 |             0.210               0.210
 <   40 |             0.210               0.210
 <   41 |             0.210               0.220
 <   42 |             0.210               0.210
 <   43 |             0.220               0.220
 <   44 |             0.210               0.210
 <   45 |             0.210               0.220
 <   46 |             0.220               0.210
 <   47 |             0.210               0.220
 <   48 |             0.210               0.210
 <   49 |             0.220               0.220
 <   50 |             0.210               0.210
 <   51 |             0.210               0.220
 <   52 |             0.220               0.210
 <   53 |             0.210               0.220
 <   54 |             0.210               0.210
 <   55 |             0.210               0.220
 <   56 |             0.210               0.210
 <   57 |             0.220               0.220
 <   58 |             0.210               0.210
 <   59 |             0.210               0.220
 <   60 |             0.210               0.220
 <   61 |             0.220               0.210
 <   62 |             0.210               0.220
 <   63 |             0.210               0.210
 <   64 |             0.210               0.210
 <   65 |             0.220               0.220
 <   66 |             0.210               0.210
 <   67 |             0.210               0.210
 <   68 |             0.210               0.210
 <   69 |             0.220               0.220
 <   70 |             0.210               0.210
 
  CASPT2 TIMING INFO FOR STATE      1
 
                         cpu time  (s)  wall time (s) 
                         -------------  ------------- 
 
  Group initialization            8.09          8.26
  - Fock matrix build             4.84          4.91
  - integral transforms           3.23          3.32
  State initialization            0.00          0.00
  - density matrices              0.00          0.00
  CASPT2 equations                1.46          1.78
  - H0 S/B matrices               0.00          0.00
  - H0 S/B diag                   0.13          0.28
  - H0 NA diag                    0.00          0.00
  - RHS construction              0.11          0.12
  - PCG solver                    1.22          1.36
    - scaling                     0.00          0.01
    - lin. comb.                  0.01          0.04
    - inner products              0.00          0.01
    - basis transforms            0.11          0.15
    - sigma routines              1.10          1.11
  - array collection              0.00          0.00
  Properties                      0.00          0.00
  MS coupling                    14.67         14.85
 Total time                      24.22         24.89
 
--
 
  Total CASPT2 energies:
::    CASPT2 Root  1     Total energy: -44342.24075529
 
  A NEW JOBIPH FILE NAMED 'JOBMIX' IS PREPARED.
********************************************************************************
++ I/O STATISTICS
 
  I. General I/O information
  - - - - - - - - - - - - - - - - - - - - - - - - - - - - - - - - - - - - - - - - - - -
  Unit  Name          Flsize      Write/Read            MBytes           Write/Read
                      (MBytes)       Calls              In/Out           Time, sec.
  - - - - - - - - - - - - - - - - - - - - - - - - - - - - - - - - - - - - - - - - - - -
   1  RUNFILE           2.81 .     140/    1390 .      1.0/      9.9 .       0/       0
   2  LUSOLV            1.47 .      25/      26 .      1.6/      1.7 .       0/       0
   3  LUSBT            10.70 .      18/     201 .      5.2/     58.4 .       0/       0
   4  LUHLF1            0.00 .       0/       0 .      0.0/      0.0 .       0/       0
   5  LUHLF2            0.00 .       0/       0 .      0.0/      0.0 .       0/       0
   6  LUHLF3            0.00 .       0/       0 .      0.0/      0.0 .       0/       0
   7  DRARR            14.52 .     106/     106 .     14.5/     14.5 .       0/       0
   8  DRARRT            0.00 .       0/       0 .      0.0/      0.0 .       0/       0
   9  RHS_01            6.08 .       3/      18 .      5.9/     35.6 .       0/       0
  10  RHS_02            6.08 .      27/      67 .     53.7/    136.1 .       0/       0
  11  RHS_03            6.08 .      29/      68 .     59.2/    136.2 .       0/       0
  12  RHS_04            6.08 .      51/     332 .    101.6/    674.2 .       0/       0
  13  RHS_05            6.08 .      82/      91 .    171.5/    189.1 .       0/       0
  14  RHS_06            6.08 .       7/     214 .     12.8/    432.5 .       0/       0
  15  RHS_07            0.00 .       0/       0 .      0.0/      0.0 .       0/       0
  16  RHS_08            0.00 .       0/       0 .      0.0/      0.0 .       0/       0
  17  H0T_01            0.00 .       0/       0 .      0.0/      0.0 .       0/       0
  18  H0T_02            0.00 .       0/       0 .      0.0/      0.0 .       0/       0
  19  H0T_03            0.00 .       0/       0 .      0.0/      0.0 .       0/       0
  20  H0T_04            0.00 .       0/       0 .      0.0/      0.0 .       0/       0
  21  LUDMAT            0.45 .      77/      76 .      0.5/      0.4 .       0/       0
  22  LUCIEX            0.07 .     140/     489 .      0.1/      0.3 .       0/       0
  23  MOLONE            1.12 .       5/       2 .      1.5/      0.8 .       0/       0
  24  MOLINT            0.00 .       0/       0 .      0.0/      0.0 .       0/       0
  25  JOBIPH           63.16 .       0/     173 .      0.0/      2.4 .       0/       0
  26  CHRED            10.15 .       0/     320 .      0.0/     30.0 .       0/       0
  27  CHVEC1          290.77 .       0/     106 .      0.0/    581.5 .       0/       0
  28  CHORST            0.06 .       0/      12 .      0.0/      0.1 .       0/       0
  29  CHOMAP            0.00 .       0/       0 .      0.0/      0.0 .       0/       0
  30  ONEINT            8.19 .       0/      30 .      0.0/      2.9 .       0/       0
  31  JOBMIX           63.16 .     100/       0 .      1.9/      0.0 .       0/       0
  - - - - - - - - - - - - - - - - - - - - - - - - - - - - - - - - - - - - - - - - - - -
   *  TOTAL           503.13 .     810/    3721 .    430.9/   2306.8 .       0/       0
  - - - - - - - - - - - - - - - - - - - - - - - - - - - - - - - - - - - - - - - - - - -
 
  II. I/O Access Patterns
  - - - - - - - - - - - - - - - - - - - -
  Unit  Name               % of random
                         Write/Read calls
  - - - - - - - - - - - - - - - - - - - -
   1  RUNFILE             28.6/  10.9
   2  LUSOLV              12.0/  19.2
   3  LUSBT               94.4/  82.1
   4  LUHLF1               0.0/   0.0
   5  LUHLF2               0.0/   0.0
   6  LUHLF3               0.0/   0.0
   7  DRARR                0.0/ 100.0
   8  DRARRT               0.0/   0.0
   9  RHS_01              33.3/  66.7
  10  RHS_02              92.6/  59.7
  11  RHS_03              93.1/  63.2
  12  RHS_04              92.2/  43.1
  13  RHS_05              86.6/  53.8
  14  RHS_06              57.1/  33.6
  15  RHS_07               0.0/   0.0
  16  RHS_08               0.0/   0.0
  17  H0T_01               0.0/   0.0
  18  H0T_02               0.0/   0.0
  19  H0T_03               0.0/   0.0
  20  H0T_04               0.0/   0.0
  21  LUDMAT              90.9/  93.4
  22  LUCIEX              50.0/  85.5
  23  MOLONE              40.0/ 100.0
  24  MOLINT               0.0/   0.0
  25  JOBIPH               0.0/  98.8
  26  CHRED                0.0/   1.2
  27  CHVEC1               0.0/   0.9
  28  CHORST               0.0/   0.0
  29  CHOMAP               0.0/   0.0
  30  ONEINT               0.0/   6.7
  31  JOBMIX              99.0/   0.0
  - - - - - - - - - - - - - - - - - - - -
--
--- Stop Module: caspt2 at Sun Mar 29 14:38:41 2026 /rc=_RC_ALL_IS_WELL_ ---
*** files: xmldump
    saved to directory /dodrio/scratch/projects/starting_2025_097/MSCASPT2_parallel/rootcombparsl/quintet/root1/root1
--- Module caspt2 spent 25 seconds ---

.##################.
.# Happy landing! #.
.##################.

    Timing: Wall=29.40 User=24.47 System=0.40
